Temperature (K),Pressure (bar),Density (mol/m3),Volume (m3/mol),Internal Energy (kJ/mol),Enthalpy (kJ/mol),Entropy (J/mol*K),Cv (J/mol*K),Cp (J/mol*K),Sound Spd. (m/s),Joule-Thomson (K/bar),Viscosity (uPa*s),Therm. Cond. (W/m*K),Phase,substance,substance_id,substance_name,Tc,Pc,rhoc,Vmc,Tr,Pr,Vmr
301.72,455.77,16276.0,6.1439e-05,1.5153,4.3155,98.334,14.391,32.823,500.33,0.02363,45.579,0.043654,supercritical,Ar,C7440371,argon,150.86,48.9805,13.41,0.07457121551081282,2.0,9.305131634017618,0.0008238969900000001
301.72,457.4,16314.0,6.1299e-05,1.5104,4.3142,98.297,14.395,32.819,501.16,0.023146,45.676,0.043748,supercritical,Ar,C7440371,argon,150.86,48.9805,13.41,0.07457121551081282,2.0,9.33841018364451,0.00082201959
301.72,459.03,16351.0,6.116e-05,1.5056,4.313,98.259,14.399,32.815,502.0,0.022666,45.772,0.043842,supercritical,Ar,C7440371,argon,150.86,48.9805,13.41,0.07457121551081282,2.0,9.371688733271403,0.0008201556000000001
301.72,460.66,16387.0,6.1023e-05,1.5007,4.3118,98.222,14.402,32.812,502.83,0.022189,45.868,0.043936,supercritical,Ar,C7440371,argon,150.86,48.9805,13.41,0.07457121551081282,2.0,9.404967282898298,0.0008183184300000001
301.72,462.29,16424.0,6.0886e-05,1.4959,4.3106,98.186,14.406,32.808,503.66,0.021715,45.964,0.044029,supercritical,Ar,C7440371,argon,150.86,48.9805,13.41,0.07457121551081282,2.0,9.438245832525189,0.00081648126
301.72,463.92,16461.0,6.0751e-05,1.4911,4.3095,98.149,14.41,32.804,504.5,0.021244,46.06,0.044123,supercritical,Ar,C7440371,argon,150.86,48.9805,13.41,0.07457121551081282,2.0,9.471524382152081,0.0008146709100000001
301.72,465.55,16497.0,6.0617e-05,1.4863,4.3084,98.112,14.414,32.8,505.33,0.020777,46.156,0.044216,supercritical,Ar,C7440371,argon,150.86,48.9805,13.41,0.07457121551081282,2.0,9.504802931778974,0.0008128739700000001
301.72,467.18,16533.0,6.0484e-05,1.4816,4.3073,98.076,14.418,32.796,506.16,0.020313,46.251,0.044309,supercritical,Ar,C7440371,argon,150.86,48.9805,13.41,0.07457121551081282,2.0,9.538081481405866,0.0008110904400000001
301.72,468.81,16569.0,6.0352e-05,1.4768,4.3062,98.04,14.422,32.792,506.99,0.019852,46.347,0.044402,supercritical,Ar,C7440371,argon,150.86,48.9805,13.41,0.07457121551081282,2.0,9.571360031032759,0.0008093203200000001
301.72,470.44,16606.0,6.0221e-05,1.4721,4.3051,98.004,14.425,32.787,507.82,0.019394,46.443,0.044495,supercritical,Ar,C7440371,argon,150.86,48.9805,13.41,0.07457121551081282,2.0,9.60463858065965,0.00080756361
301.72,472.07,16641.0,6.0091e-05,1.4674,4.3041,97.968,14.429,32.783,508.65,0.018939,46.538,0.044587,supercritical,Ar,C7440371,argon,150.86,48.9805,13.41,0.07457121551081282,2.0,9.637917130286542,0.00080582031
301.72,473.7,16677.0,5.9962e-05,1.4627,4.3031,97.932,14.433,32.779,509.48,0.018488,46.633,0.04468,supercritical,Ar,C7440371,argon,150.86,48.9805,13.41,0.07457121551081282,2.0,9.671195679913435,0.0008040904200000001
301.72,475.33,16713.0,5.9834e-05,1.458,4.3021,97.897,14.437,32.774,510.3,0.018039,46.729,0.044772,supercritical,Ar,C7440371,argon,150.86,48.9805,13.41,0.07457121551081282,2.0,9.704474229540327,0.00080237394
301.72,476.96,16748.0,5.9707e-05,1.4534,4.3012,97.861,14.441,32.77,511.13,0.017594,46.824,0.044864,supercritical,Ar,C7440371,argon,150.86,48.9805,13.41,0.07457121551081282,2.0,9.73775277916722,0.0008006708700000001
301.72,478.59,16784.0,5.9582e-05,1.4487,4.3003,97.826,14.444,32.765,511.96,0.017151,46.919,0.044956,supercritical,Ar,C7440371,argon,150.86,48.9805,13.41,0.07457121551081282,2.0,9.77103132879411,0.00079899462
301.72,480.22,16819.0,5.9457e-05,1.4441,4.2994,97.791,14.448,32.76,512.78,0.016712,47.014,0.045048,supercritical,Ar,C7440371,argon,150.86,48.9805,13.41,0.07457121551081282,2.0,9.804309878421005,0.00079731837
301.72,481.85,16854.0,5.9333e-05,1.4395,4.2985,97.756,14.452,32.755,513.61,0.016276,47.109,0.04514,supercritical,Ar,C7440371,argon,150.86,48.9805,13.41,0.07457121551081282,2.0,9.837588428047898,0.0007956555300000001
301.72,483.48,16889.0,5.921e-05,1.4349,4.2976,97.721,14.456,32.751,514.43,0.015842,47.204,0.045232,supercritical,Ar,C7440371,argon,150.86,48.9805,13.41,0.07457121551081282,2.0,9.870866977674789,0.0007940061
301.72,485.11,16924.0,5.9088e-05,1.4304,4.2968,97.686,14.46,32.746,515.25,0.015411,47.299,0.045324,supercritical,Ar,C7440371,argon,150.86,48.9805,13.41,0.07457121551081282,2.0,9.904145527301681,0.00079237008
301.72,486.74,16959.0,5.8967e-05,1.4258,4.296,97.652,14.463,32.741,516.07,0.014984,47.393,0.045415,supercritical,Ar,C7440371,argon,150.86,48.9805,13.41,0.07457121551081282,2.0,9.937424076928574,0.00079074747
301.72,488.37,16993.0,5.8847e-05,1.4213,4.2952,97.617,14.467,32.736,516.9,0.014559,47.488,0.045506,supercritical,Ar,C7440371,argon,150.86,48.9805,13.41,0.07457121551081282,2.0,9.970702626555466,0.0007891382700000001
301.72,490.0,17028.0,5.8728e-05,1.4168,4.2944,97.583,14.471,32.731,517.72,0.014137,47.583,0.045598,supercritical,Ar,C7440371,argon,150.86,48.9805,13.41,0.07457121551081282,2.0,10.003981176182359,0.00078754248
301.72,491.63,17062.0,5.8609e-05,1.4123,4.2937,97.549,14.475,32.726,518.54,0.013718,47.677,0.045689,supercritical,Ar,C7440371,argon,150.86,48.9805,13.41,0.07457121551081282,2.0,10.037259725809252,0.0007859466900000001
301.72,493.26,17096.0,5.8492e-05,1.4078,4.293,97.515,14.479,32.72,519.35,0.013302,47.771,0.045779,supercritical,Ar,C7440371,argon,150.86,48.9805,13.41,0.07457121551081282,2.0,10.070538275436142,0.0007843777200000001
301.72,494.89,17131.0,5.8375e-05,1.4033,4.2923,97.481,14.482,32.715,520.17,0.012888,47.866,0.04587,supercritical,Ar,C7440371,argon,150.86,48.9805,13.41,0.07457121551081282,2.0,10.103816825063035,0.0007828087500000001
301.72,496.52,17165.0,5.826e-05,1.3989,4.2916,97.447,14.486,32.71,520.99,0.012478,47.96,0.045961,supercritical,Ar,C7440371,argon,150.86,48.9805,13.41,0.07457121551081282,2.0,10.137095374689927,0.0007812666000000001
301.72,498.15,17198.0,5.8145e-05,1.3944,4.2909,97.413,14.49,32.704,521.81,0.01207,48.054,0.046051,supercritical,Ar,C7440371,argon,150.86,48.9805,13.41,0.07457121551081282,2.0,10.17037392431682,0.00077972445
301.72,499.78,17232.0,5.8031e-05,1.39,4.2903,97.38,14.494,32.699,522.62,0.011665,48.148,0.046142,supercritical,Ar,C7440371,argon,150.86,48.9805,13.41,0.07457121551081282,2.0,10.203652473943713,0.0007781957100000001
301.72,501.41,17266.0,5.7918e-05,1.3856,4.2897,97.347,14.497,32.694,523.44,0.011262,48.242,0.046232,supercritical,Ar,C7440371,argon,150.86,48.9805,13.41,0.07457121551081282,2.0,10.236931023570605,0.0007766803800000001
301.72,503.04,17299.0,5.7806e-05,1.3812,4.2891,97.313,14.501,32.688,524.25,0.010862,48.336,0.046322,supercritical,Ar,C7440371,argon,150.86,48.9805,13.41,0.07457121551081282,2.0,10.270209573197498,0.0007751784600000001
301.72,504.67,17333.0,5.7694e-05,1.3769,4.2885,97.28,14.505,32.682,525.07,0.010465,48.43,0.046412,supercritical,Ar,C7440371,argon,150.86,48.9805,13.41,0.07457121551081282,2.0,10.30348812282439,0.0007736765400000001
301.72,506.3,17366.0,5.7584e-05,1.3725,4.288,97.247,14.508,32.677,525.88,0.010071,48.524,0.046502,supercritical,Ar,C7440371,argon,150.86,48.9805,13.41,0.07457121551081282,2.0,10.336766672451281,0.0007722014400000001
301.72,507.93,17399.0,5.7474e-05,1.3682,4.2875,97.215,14.512,32.671,526.69,0.0096789,48.618,0.046592,supercritical,Ar,C7440371,argon,150.86,48.9805,13.41,0.07457121551081282,2.0,10.370045222078174,0.0007707263400000001
301.72,509.56,17432.0,5.7365e-05,1.3639,4.287,97.182,14.516,32.665,527.5,0.0092896,48.711,0.046681,supercritical,Ar,C7440371,argon,150.86,48.9805,13.41,0.07457121551081282,2.0,10.403323771705066,0.0007692646500000001
301.72,511.19,17465.0,5.7257e-05,1.3596,4.2865,97.149,14.52,32.66,528.31,0.0089029,48.805,0.046771,supercritical,Ar,C7440371,argon,150.86,48.9805,13.41,0.07457121551081282,2.0,10.436602321331959,0.0007678163700000001
301.72,512.82,17498.0,5.7149e-05,1.3553,4.286,97.117,14.523,32.654,529.12,0.0085187,48.898,0.04686,supercritical,Ar,C7440371,argon,150.86,48.9805,13.41,0.07457121551081282,2.0,10.469880870958852,0.0007663680900000001
301.72,514.45,17531.0,5.7043e-05,1.351,4.2856,97.085,14.527,32.648,529.93,0.0081371,48.992,0.046949,supercritical,Ar,C7440371,argon,150.86,48.9805,13.41,0.07457121551081282,2.0,10.503159420585744,0.0007649466300000002
301.72,516.08,17563.0,5.6937e-05,1.3467,4.2851,97.052,14.531,32.642,530.73,0.007758,49.085,0.047038,supercritical,Ar,C7440371,argon,150.86,48.9805,13.41,0.07457121551081282,2.0,10.536437970212637,0.0007635251700000001
301.72,517.71,17596.0,5.6832e-05,1.3425,4.2847,97.02,14.535,32.636,531.54,0.0073814,49.178,0.047127,supercritical,Ar,C7440371,argon,150.86,48.9805,13.41,0.07457121551081282,2.0,10.56971651983953,0.00076211712
301.72,519.34,17628.0,5.6727e-05,1.3383,4.2844,96.988,14.538,32.63,532.35,0.0070073,49.272,0.047216,supercritical,Ar,C7440371,argon,150.86,48.9805,13.41,0.07457121551081282,2.0,10.602995069466422,0.0007607090700000001
301.72,520.97,17660.0,5.6624e-05,1.3341,4.284,96.956,14.542,32.624,533.15,0.0066356,49.365,0.047305,supercritical,Ar,C7440371,argon,150.86,48.9805,13.41,0.07457121551081282,2.0,10.636273619093313,0.0007593278400000001
301.72,522.6,17693.0,5.6521e-05,1.3299,4.2836,96.925,14.546,32.618,533.96,0.0062664,49.458,0.047394,supercritical,Ar,C7440371,argon,150.86,48.9805,13.41,0.07457121551081282,2.0,10.669552168720205,0.0007579466100000001
301.72,524.23,17725.0,5.6419e-05,1.3257,4.2833,96.893,14.549,32.612,534.76,0.0058996,49.551,0.047482,supercritical,Ar,C7440371,argon,150.86,48.9805,13.41,0.07457121551081282,2.0,10.702830718347098,0.0007565787900000001
301.72,525.86,17757.0,5.6317e-05,1.3215,4.283,96.862,14.553,32.606,535.56,0.0055352,49.644,0.04757,supercritical,Ar,C7440371,argon,150.86,48.9805,13.41,0.07457121551081282,2.0,10.73610926797399,0.0007552109700000001
301.72,527.49,17788.0,5.6216e-05,1.3174,4.2827,96.83,14.557,32.6,536.36,0.0051731,49.737,0.047659,supercritical,Ar,C7440371,argon,150.86,48.9805,13.41,0.07457121551081282,2.0,10.769387817600883,0.00075385656
301.72,529.12,17820.0,5.6116e-05,1.3132,4.2825,96.799,14.56,32.594,537.16,0.0048134,49.83,0.047747,supercritical,Ar,C7440371,argon,150.86,48.9805,13.41,0.07457121551081282,2.0,10.802666367227774,0.0007525155600000001
301.72,530.75,17852.0,5.6017e-05,1.3091,4.2822,96.768,14.564,32.588,537.96,0.0044561,49.923,0.047835,supercritical,Ar,C7440371,argon,150.86,48.9805,13.41,0.07457121551081282,2.0,10.835944916854666,0.0007511879700000001
301.72,532.38,17883.0,5.5918e-05,1.305,4.282,96.737,14.568,32.582,538.76,0.0041011,50.016,0.047922,supercritical,Ar,C7440371,argon,150.86,48.9805,13.41,0.07457121551081282,2.0,10.869223466481559,0.0007498603800000001
301.72,534.01,17915.0,5.582e-05,1.3009,4.2818,96.706,14.571,32.576,539.56,0.0037484,50.108,0.04801,supercritical,Ar,C7440371,argon,150.86,48.9805,13.41,0.07457121551081282,2.0,10.902502016108452,0.0007485462000000001
301.72,535.64,17946.0,5.5723e-05,1.2968,4.2816,96.675,14.575,32.569,540.36,0.0033979,50.201,0.048098,supercritical,Ar,C7440371,argon,150.86,48.9805,13.41,0.07457121551081282,2.0,10.935780565735344,0.0007472454300000001
301.72,537.27,17977.0,5.5627e-05,1.2928,4.2814,96.645,14.579,32.563,541.15,0.0030498,50.294,0.048185,supercritical,Ar,C7440371,argon,150.86,48.9805,13.41,0.07457121551081282,2.0,10.969059115362235,0.0007459580700000001
301.72,538.9,18008.0,5.5531e-05,1.2887,4.2813,96.614,14.582,32.557,541.95,0.0027039,50.386,0.048273,supercritical,Ar,C7440371,argon,150.86,48.9805,13.41,0.07457121551081282,2.0,11.002337664989128,0.0007446707100000001
301.72,540.53,18039.0,5.5435e-05,1.2847,4.2811,96.584,14.586,32.55,542.74,0.0023602,50.479,0.04836,supercritical,Ar,C7440371,argon,150.86,48.9805,13.41,0.07457121551081282,2.0,11.03561621461602,0.00074338335
301.72,542.16,18070.0,5.5341e-05,1.2807,4.281,96.554,14.59,32.544,543.53,0.0020187,50.571,0.048447,supercritical,Ar,C7440371,argon,150.86,48.9805,13.41,0.07457121551081282,2.0,11.068894764242913,0.00074212281
301.72,543.79,18101.0,5.5247e-05,1.2767,4.2809,96.523,14.593,32.538,544.33,0.0016795,50.663,0.048534,supercritical,Ar,C7440371,argon,150.86,48.9805,13.41,0.07457121551081282,2.0,11.102173313869805,0.0007408622700000001
301.72,545.42,18131.0,5.5153e-05,1.2727,4.2808,96.493,14.597,32.531,545.12,0.0013424,50.756,0.048621,supercritical,Ar,C7440371,argon,150.86,48.9805,13.41,0.07457121551081282,2.0,11.135451863496696,0.00073960173
301.72,547.05,18162.0,5.506e-05,1.2687,4.2808,96.463,14.601,32.525,545.91,0.0010074,50.848,0.048708,supercritical,Ar,C7440371,argon,150.86,48.9805,13.41,0.07457121551081282,2.0,11.168730413123589,0.0007383546000000001
301.72,548.68,18192.0,5.4968e-05,1.2647,4.2807,96.433,14.604,32.518,546.7,0.00067465,50.94,0.048795,supercritical,Ar,C7440371,argon,150.86,48.9805,13.41,0.07457121551081282,2.0,11.202008962750481,0.00073712088
301.72,550.31,18223.0,5.4877e-05,1.2608,4.2807,96.404,14.608,32.512,547.49,0.00034399,51.033,0.048881,supercritical,Ar,C7440371,argon,150.86,48.9805,13.41,0.07457121551081282,2.0,11.235287512377374,0.0007359005700000002
301.72,551.94,18253.0,5.4786e-05,1.2569,4.2807,96.374,14.612,32.505,548.27,1.5436e-05,51.125,0.048968,supercritical,Ar,C7440371,argon,150.86,48.9805,13.41,0.07457121551081282,2.0,11.268566062004268,0.0007346802600000001
301.72,553.57,18283.0,5.4695e-05,1.2529,4.2807,96.344,14.615,32.499,549.06,-0.00031102,51.217,0.049054,supercritical,Ar,C7440371,argon,150.86,48.9805,13.41,0.07457121551081282,2.0,11.30184461163116,0.00073345995
301.72,555.2,18313.0,5.4606e-05,1.249,4.2807,96.315,14.619,32.492,549.85,-0.0006354,51.309,0.04914,supercritical,Ar,C7440371,argon,150.86,48.9805,13.41,0.07457121551081282,2.0,11.335123161258053,0.0007322664600000001
301.72,556.83,18343.0,5.4516e-05,1.2451,4.2808,96.286,14.622,32.486,550.63,-0.00095772,51.401,0.049226,supercritical,Ar,C7440371,argon,150.86,48.9805,13.41,0.07457121551081282,2.0,11.368401710884944,0.0007310595600000001
301.72,558.46,18373.0,5.4428e-05,1.2413,4.2808,96.256,14.626,32.479,551.42,-0.001278,51.493,0.049312,supercritical,Ar,C7440371,argon,150.86,48.9805,13.41,0.07457121551081282,2.0,11.401680260511837,0.00072987948
301.72,560.09,18403.0,5.434e-05,1.2374,4.2809,96.227,14.63,32.473,552.2,-0.0015962,51.585,0.049398,supercritical,Ar,C7440371,argon,150.86,48.9805,13.41,0.07457121551081282,2.0,11.43495881013873,0.0007286994
301.72,561.72,18432.0,5.4252e-05,1.2335,4.281,96.198,14.633,32.466,552.98,-0.0019125,51.677,0.049484,supercritical,Ar,C7440371,argon,150.86,48.9805,13.41,0.07457121551081282,2.0,11.468237359765622,0.0007275193200000001
301.72,563.35,18462.0,5.4166e-05,1.2297,4.2811,96.169,14.637,32.46,553.76,-0.0022267,51.769,0.04957,supercritical,Ar,C7440371,argon,150.86,48.9805,13.41,0.07457121551081282,2.0,11.501515909392515,0.0007263660600000001
301.72,564.98,18491.0,5.4079e-05,1.2259,4.2812,96.141,14.64,32.453,554.54,-0.002539,51.86,0.049655,supercritical,Ar,C7440371,argon,150.86,48.9805,13.41,0.07457121551081282,2.0,11.534794459019405,0.0007251993900000001
301.72,566.61,18521.0,5.3994e-05,1.2221,4.2814,96.112,14.644,32.446,555.32,-0.0028493,51.952,0.049741,supercritical,Ar,C7440371,argon,150.86,48.9805,13.41,0.07457121551081282,2.0,11.568073008646298,0.00072405954
301.72,568.24,18550.0,5.3908e-05,1.2183,4.2815,96.083,14.648,32.44,556.1,-0.0031576,52.044,0.049826,supercritical,Ar,C7440371,argon,150.86,48.9805,13.41,0.07457121551081282,2.0,11.60135155827319,0.00072290628
301.72,569.87,18579.0,5.3824e-05,1.2145,4.2817,96.055,14.651,32.433,556.88,-0.003464,52.136,0.049911,supercritical,Ar,C7440371,argon,150.86,48.9805,13.41,0.07457121551081282,2.0,11.634630107900083,0.0007217798400000001
301.72,571.5,18608.0,5.374e-05,1.2107,4.2819,96.026,14.655,32.426,557.66,-0.0037685,52.227,0.049996,supercritical,Ar,C7440371,argon,150.86,48.9805,13.41,0.07457121551081282,2.0,11.667908657526976,0.0007206534000000001
301.72,573.13,18637.0,5.3656e-05,1.2069,4.2821,95.998,14.658,32.42,558.43,-0.0040711,52.319,0.050081,supercritical,Ar,C7440371,argon,150.86,48.9805,13.41,0.07457121551081282,2.0,11.701187207153868,0.0007195269600000001
301.72,574.76,18666.0,5.3573e-05,1.2032,4.2823,95.97,14.662,32.413,559.21,-0.0043718,52.41,0.050166,supercritical,Ar,C7440371,argon,150.86,48.9805,13.41,0.07457121551081282,2.0,11.734465756780759,0.0007184139300000001
301.72,576.39,18695.0,5.349e-05,1.1994,4.2826,95.942,14.666,32.406,559.98,-0.0046707,52.502,0.050251,supercritical,Ar,C7440371,argon,150.86,48.9805,13.41,0.07457121551081282,2.0,11.767744306407652,0.0007173009
301.72,578.02,18724.0,5.3408e-05,1.1957,4.2828,95.914,14.669,32.4,560.75,-0.0049676,52.593,0.050336,supercritical,Ar,C7440371,argon,150.86,48.9805,13.41,0.07457121551081282,2.0,11.801022856034544,0.00071620128
301.72,579.65,18752.0,5.3327e-05,1.192,4.2831,95.886,14.673,32.393,561.52,-0.0052628,52.685,0.050421,supercritical,Ar,C7440371,argon,150.86,48.9805,13.41,0.07457121551081282,2.0,11.834301405661437,0.00071511507
301.72,581.28,18781.0,5.3246e-05,1.1883,4.2834,95.858,14.676,32.386,562.3,-0.0055561,52.776,0.050505,supercritical,Ar,C7440371,argon,150.86,48.9805,13.41,0.07457121551081282,2.0,11.86757995528833,0.00071402886
301.72,582.91,18809.0,5.3166e-05,1.1846,4.2837,95.83,14.68,32.38,563.07,-0.0058475,52.868,0.050589,supercritical,Ar,C7440371,argon,150.86,48.9805,13.41,0.07457121551081282,2.0,11.90085850491522,0.00071295606
301.72,584.54,18838.0,5.3086e-05,1.1809,4.284,95.802,14.683,32.373,563.84,-0.0061372,52.959,0.050674,supercritical,Ar,C7440371,argon,150.86,48.9805,13.41,0.07457121551081282,2.0,11.934137054542113,0.0007118832600000001
301.72,586.17,18866.0,5.3006e-05,1.1773,4.2843,95.775,14.687,32.366,564.6,-0.0064251,53.05,0.050758,supercritical,Ar,C7440371,argon,150.86,48.9805,13.41,0.07457121551081282,2.0,11.967415604169005,0.0007108104600000001
301.72,587.8,18894.0,5.2927e-05,1.1736,4.2847,95.747,14.691,32.359,565.37,-0.0067112,53.141,0.050842,supercritical,Ar,C7440371,argon,150.86,48.9805,13.41,0.07457121551081282,2.0,12.000694153795898,0.0007097510700000002
301.72,589.43,18922.0,5.2848e-05,1.17,4.285,95.72,14.694,32.353,566.14,-0.0069956,53.233,0.050926,supercritical,Ar,C7440371,argon,150.86,48.9805,13.41,0.07457121551081282,2.0,12.03397270342279,0.0007086916800000001
301.72,591.06,18950.0,5.277e-05,1.1664,4.2854,95.693,14.698,32.346,566.9,-0.0072782,53.324,0.05101,supercritical,Ar,C7440371,argon,150.86,48.9805,13.41,0.07457121551081282,2.0,12.067251253049681,0.0007076457
301.72,592.69,18978.0,5.2693e-05,1.1628,4.2858,95.666,14.701,32.339,567.67,-0.0075591,53.415,0.051094,supercritical,Ar,C7440371,argon,150.86,48.9805,13.41,0.07457121551081282,2.0,12.100529802676578,0.0007066131300000001
301.72,594.32,19006.0,5.2616e-05,1.1592,4.2862,95.638,14.705,32.332,568.43,-0.0078383,53.506,0.051178,supercritical,Ar,C7440371,argon,150.86,48.9805,13.41,0.07457121551081282,2.0,12.133808352303468,0.0007055805600000001
301.72,595.95,19033.0,5.2539e-05,1.1556,4.2866,95.611,14.708,32.326,569.19,-0.0081157,53.597,0.051261,supercritical,Ar,C7440371,argon,150.86,48.9805,13.41,0.07457121551081282,2.0,12.167086901930361,0.0007045479900000001
301.72,597.58,19061.0,5.2463e-05,1.152,4.2871,95.585,14.712,32.319,569.96,-0.0083915,53.688,0.051345,supercritical,Ar,C7440371,argon,150.86,48.9805,13.41,0.07457121551081282,2.0,12.200365451557253,0.0007035288300000001
301.72,599.21,19089.0,5.2387e-05,1.1484,4.2875,95.558,14.715,32.312,570.72,-0.0086656,53.779,0.051428,supercritical,Ar,C7440371,argon,150.86,48.9805,13.41,0.07457121551081282,2.0,12.233644001184146,0.0007025096700000001
301.72,600.84,19116.0,5.2312e-05,1.1449,4.288,95.531,14.719,32.305,571.48,-0.008938,53.87,0.051511,supercritical,Ar,C7440371,argon,150.86,48.9805,13.41,0.07457121551081282,2.0,12.266922550811039,0.0007015039200000001
301.72,602.47,19143.0,5.2237e-05,1.1413,4.2885,95.504,14.723,32.298,572.24,-0.0092088,53.961,0.051595,supercritical,Ar,C7440371,argon,150.86,48.9805,13.41,0.07457121551081282,2.0,12.30020110043793,0.0007004981700000001