Temperature (K),Pressure (bar),Density (mol/m3),Volume (m3/mol),Internal Energy (kJ/mol),Enthalpy (kJ/mol),Entropy (J/mol*K),Cv (J/mol*K),Cp (J/mol*K),Sound Spd. (m/s),Joule-Thomson (K/bar),Viscosity (uPa*s),Therm. Cond. (W/m*K),Phase,substance,substance_id,substance_name,Tc,Pc,rhoc,Vmc,Tr,Pr,Vmr
200.95,132.04,12254.0,8.1605e-05,2.165,3.2425,143.39,24.452,69.547,284.06,0.2534,25.929,0.039773,supercritical,O2,C7782447,oxygen,154.58,50.43,13.6,0.07352941176470588,1.3,2.6182827681935357,0.001109828
200.95,133.41,12404.0,8.062e-05,2.1431,3.2186,143.22,24.46,69.718,285.52,0.2489,26.178,0.040124,supercritical,O2,C7782447,oxygen,154.58,50.43,13.6,0.07352941176470588,1.3,2.645449137418203,0.0010964319999999998
200.95,134.77,12552.0,7.9666e-05,2.1214,3.1951,143.05,24.468,69.867,287.0,0.24445,26.427,0.040473,supercritical,O2,C7782447,oxygen,154.58,50.43,13.6,0.07352941176470588,1.3,2.672417211976998,0.0010834576000000001
200.95,136.13,12700.0,7.8743e-05,2.1,3.172,142.88,24.474,69.995,288.52,0.24006,26.677,0.040821,supercritical,O2,C7782447,oxygen,154.58,50.43,13.6,0.07352941176470588,1.3,2.699385286535792,0.0010709048
200.95,137.5,12845.0,7.7848e-05,2.0788,3.1492,142.71,24.48,70.101,290.06,0.23573,26.928,0.041166,supercritical,O2,C7782447,oxygen,154.58,50.43,13.6,0.07352941176470588,1.3,2.72655165576046,0.0010587328
200.95,138.87,12990.0,7.6982e-05,2.0578,3.1269,142.55,24.486,70.188,291.63,0.23146,27.178,0.041509,supercritical,O2,C7782447,oxygen,154.58,50.43,13.6,0.07352941176470588,1.3,2.753718024985128,0.0010469552
200.95,140.23,13133.0,7.6144e-05,2.0371,3.1049,142.39,24.49,70.254,293.22,0.22724,27.428,0.04185,supercritical,O2,C7782447,oxygen,154.58,50.43,13.6,0.07352941176470588,1.3,2.780686099543922,0.0010355584
200.95,141.59,13275.0,7.5332e-05,2.0166,3.0833,142.23,24.494,70.302,294.83,0.22309,27.678,0.042188,supercritical,O2,C7782447,oxygen,154.58,50.43,13.6,0.07352941176470588,1.3,2.8076541741027166,0.0010245152
200.95,142.96,13415.0,7.4545e-05,1.9964,3.0621,142.07,24.497,70.332,296.47,0.219,27.928,0.042524,supercritical,O2,C7782447,oxygen,154.58,50.43,13.6,0.07352941176470588,1.3,2.8348205433273845,0.001013812
200.95,144.32,13553.0,7.3783e-05,1.9764,3.0412,141.92,24.5,70.344,298.13,0.21498,28.178,0.042857,supercritical,O2,C7782447,oxygen,154.58,50.43,13.6,0.07352941176470588,1.3,2.861788617886179,0.0010034488
200.95,145.69,13690.0,7.3044e-05,1.9566,3.0208,141.77,24.502,70.34,299.81,0.21102,28.427,0.043187,supercritical,O2,C7782447,oxygen,154.58,50.43,13.6,0.07352941176470588,1.3,2.888954987110847,0.0009933984
200.95,147.06,13826.0,7.2329e-05,1.9371,3.0007,141.62,24.503,70.319,301.51,0.20713,28.675,0.043515,supercritical,O2,C7782447,oxygen,154.58,50.43,13.6,0.07352941176470588,1.3,2.916121356335515,0.0009836744
200.95,148.42,13960.0,7.1635e-05,1.9178,2.981,141.47,24.504,70.284,303.23,0.2033,28.923,0.043839,supercritical,O2,C7782447,oxygen,154.58,50.43,13.6,0.07352941176470588,1.3,2.9430894308943087,0.000974236
200.95,149.78,14092.0,7.0963e-05,1.8988,2.9617,141.33,24.505,70.234,304.97,0.19954,29.169,0.044161,supercritical,O2,C7782447,oxygen,154.58,50.43,13.6,0.07352941176470588,1.3,2.9700575054531035,0.0009650968000000001
200.95,151.15,14223.0,7.0311e-05,1.88,2.9428,141.19,24.505,70.171,306.72,0.19585,29.415,0.04448,supercritical,O2,C7782447,oxygen,154.58,50.43,13.6,0.07352941176470588,1.3,2.9972238746777715,0.0009562295999999999
200.95,152.51,14352.0,6.9679e-05,1.8615,2.9242,141.05,24.505,70.095,308.48,0.19222,29.66,0.044796,supercritical,O2,C7782447,oxygen,154.58,50.43,13.6,0.07352941176470588,1.3,3.0241919492365654,0.0009476343999999999
200.95,153.88,14479.0,6.9066e-05,1.8432,2.906,140.91,24.504,70.008,310.26,0.18866,29.904,0.045109,supercritical,O2,C7782447,oxygen,154.58,50.43,13.6,0.07352941176470588,1.3,3.0513583184612334,0.0009392976000000001
200.95,155.25,14605.0,6.8471e-05,1.8251,2.8881,140.77,24.503,69.91,312.05,0.18516,30.146,0.045419,supercritical,O2,C7782447,oxygen,154.58,50.43,13.6,0.07352941176470588,1.3,3.0785246876859014,0.0009312056
200.95,156.61,14729.0,6.7893e-05,1.8074,2.8706,140.64,24.501,69.801,313.85,0.18173,30.387,0.045726,supercritical,O2,C7782447,oxygen,154.58,50.43,13.6,0.07352941176470588,1.3,3.1054927622446957,0.0009233447999999999
200.95,157.97,14852.0,6.7333e-05,1.7898,2.8535,140.51,24.5,69.683,315.67,0.17837,30.628,0.04603,supercritical,O2,C7782447,oxygen,154.58,50.43,13.6,0.07352941176470588,1.3,3.13246083680349,0.0009157287999999999
200.95,159.34,14972.0,6.6789e-05,1.7725,2.8367,140.38,24.498,69.556,317.49,0.17507,30.866,0.046331,supercritical,O2,C7782447,oxygen,154.58,50.43,13.6,0.07352941176470588,1.3,3.159627206028158,0.0009083304
200.95,160.71,15092.0,6.6261e-05,1.7554,2.8202,140.25,24.496,69.421,319.32,0.17183,31.104,0.046629,supercritical,O2,C7782447,oxygen,154.58,50.43,13.6,0.07352941176470588,1.3,3.186793575252826,0.0009011496
200.95,162.07,15210.0,6.5748e-05,1.7386,2.8041,140.13,24.493,69.279,321.16,0.16866,31.34,0.046924,supercritical,O2,C7782447,oxygen,154.58,50.43,13.6,0.07352941176470588,1.3,3.21376164981162,0.0008941727999999999
200.95,163.44,15326.0,6.5249e-05,1.7219,2.7883,140.0,24.491,69.13,323.01,0.16555,31.575,0.047216,supercritical,O2,C7782447,oxygen,154.58,50.43,13.6,0.07352941176470588,1.3,3.240928019036288,0.0008873863999999999
200.95,164.8,15440.0,6.4765e-05,1.7056,2.7729,139.88,24.488,68.975,324.86,0.1625,31.808,0.047505,supercritical,O2,C7782447,oxygen,154.58,50.43,13.6,0.07352941176470588,1.3,3.2678960935950827,0.0008808039999999999
200.95,166.16,15554.0,6.4294e-05,1.6894,2.7577,139.76,24.485,68.815,326.72,0.15952,32.04,0.047791,supercritical,O2,C7782447,oxygen,154.58,50.43,13.6,0.07352941176470588,1.3,3.2948641681538766,0.0008743984
200.95,167.53,15665.0,6.3836e-05,1.6735,2.7429,139.65,24.482,68.65,328.59,0.15659,32.27,0.048075,supercritical,O2,C7782447,oxygen,154.58,50.43,13.6,0.07352941176470588,1.3,3.3220305373785446,0.0008681696
200.95,168.9,15775.0,6.3391e-05,1.6578,2.7284,139.53,24.479,68.48,330.45,0.15372,32.499,0.048355,supercritical,O2,C7782447,oxygen,154.58,50.43,13.6,0.07352941176470588,1.3,3.3491969066032126,0.0008621176
200.95,170.26,15884.0,6.2958e-05,1.6423,2.7142,139.42,24.476,68.306,332.33,0.15091,32.726,0.048633,supercritical,O2,C7782447,oxygen,154.58,50.43,13.6,0.07352941176470588,1.3,3.3761649811620065,0.0008562288000000001
200.95,171.62,15991.0,6.2536e-05,1.627,2.7003,139.3,24.473,68.129,334.2,0.14816,32.952,0.048908,supercritical,O2,C7782447,oxygen,154.58,50.43,13.6,0.07352941176470588,1.3,3.4031330557208013,0.0008504895999999999
200.95,172.99,16096.0,6.2126e-05,1.6119,2.6866,139.19,24.469,67.949,336.07,0.14547,33.176,0.049181,supercritical,O2,C7782447,oxygen,154.58,50.43,13.6,0.07352941176470588,1.3,3.4302994249454692,0.0008449135999999999
200.95,174.35,16200.0,6.1727e-05,1.597,2.6733,139.09,24.466,67.766,337.95,0.14283,33.399,0.049451,supercritical,O2,C7782447,oxygen,154.58,50.43,13.6,0.07352941176470588,1.3,3.457267499504263,0.0008394871999999999
200.95,175.72,16303.0,6.1338e-05,1.5824,2.6602,138.98,24.462,67.581,339.83,0.14024,33.62,0.049718,supercritical,O2,C7782447,oxygen,154.58,50.43,13.6,0.07352941176470588,1.3,3.484433868728931,0.0008341968
200.95,177.09,16405.0,6.0959e-05,1.5679,2.6474,138.87,24.459,67.395,341.71,0.13771,33.84,0.049983,supercritical,O2,C7782447,oxygen,154.58,50.43,13.6,0.07352941176470588,1.3,3.511600237953599,0.0008290423999999999
200.95,178.45,16505.0,6.0589e-05,1.5536,2.6349,138.77,24.455,67.206,343.58,0.13523,34.058,0.050245,supercritical,O2,C7782447,oxygen,154.58,50.43,13.6,0.07352941176470588,1.3,3.538568312512393,0.0008240103999999999
200.95,179.81,16603.0,6.0229e-05,1.5396,2.6226,138.67,24.452,67.017,345.46,0.1328,34.275,0.050505,supercritical,O2,C7782447,oxygen,154.58,50.43,13.6,0.07352941176470588,1.3,3.565536387071188,0.0008191144
200.95,181.18,16700.0,5.9878e-05,1.5257,2.6106,138.57,24.448,66.826,347.34,0.13042,34.49,0.050762,supercritical,O2,C7782447,oxygen,154.58,50.43,13.6,0.07352941176470588,1.3,3.592702756295856,0.0008143407999999999
200.95,182.54,16796.0,5.9536e-05,1.512,2.5988,138.47,24.445,66.635,349.21,0.12809,34.704,0.051017,supercritical,O2,C7782447,oxygen,154.58,50.43,13.6,0.07352941176470588,1.3,3.6196708308546497,0.0008096896
200.95,183.91,16891.0,5.9202e-05,1.4985,2.5872,138.37,24.442,66.443,351.09,0.12581,34.916,0.05127,supercritical,O2,C7782447,oxygen,154.58,50.43,13.6,0.07352941176470588,1.3,3.6468372000793177,0.0008051471999999999
200.95,185.28,16985.0,5.8877e-05,1.4851,2.576,138.27,24.438,66.252,352.96,0.12357,35.127,0.05152,supercritical,O2,C7782447,oxygen,154.58,50.43,13.6,0.07352941176470588,1.3,3.6740035693039856,0.0008007272
200.95,186.64,17077.0,5.8559e-05,1.472,2.5649,138.18,24.435,66.06,354.82,0.12138,35.336,0.051769,supercritical,O2,C7782447,oxygen,154.58,50.43,13.6,0.07352941176470588,1.3,3.70097164386278,0.0007964024
200.95,188.0,17168.0,5.8248e-05,1.459,2.5541,138.09,24.432,65.868,356.69,0.11923,35.544,0.052015,supercritical,O2,C7782447,oxygen,154.58,50.43,13.6,0.07352941176470588,1.3,3.7279397184215743,0.0007921728
200.95,189.37,17258.0,5.7945e-05,1.4461,2.5435,137.99,24.428,65.677,358.55,0.11713,35.751,0.052258,supercritical,O2,C7782447,oxygen,154.58,50.43,13.6,0.07352941176470588,1.3,3.7551060876462423,0.000788052
200.95,190.74,17346.0,5.7649e-05,1.4335,2.5331,137.9,24.425,65.486,360.41,0.11506,35.956,0.0525,supercritical,O2,C7782447,oxygen,154.58,50.43,13.6,0.07352941176470588,1.3,3.7822724568709103,0.0007840264
200.95,192.1,17434.0,5.736e-05,1.421,2.5229,137.81,24.422,65.296,362.26,0.11304,36.159,0.05274,supercritical,O2,C7782447,oxygen,154.58,50.43,13.6,0.07352941176470588,1.3,3.8092405314297046,0.000780096
200.95,193.47,17520.0,5.7077e-05,1.4087,2.5129,137.72,24.419,65.106,364.11,0.11106,36.362,0.052978,supercritical,O2,C7782447,oxygen,154.58,50.43,13.6,0.07352941176470588,1.3,3.836406900654372,0.0007762472
200.95,194.83,17605.0,5.6801e-05,1.3965,2.5031,137.64,24.416,64.918,365.96,0.10912,36.563,0.053214,supercritical,O2,C7782447,oxygen,154.58,50.43,13.6,0.07352941176470588,1.3,3.863374975213167,0.0007724936
200.95,196.19,17689.0,5.6531e-05,1.3845,2.4936,137.55,24.413,64.731,367.8,0.10722,36.762,0.053448,supercritical,O2,C7782447,oxygen,154.58,50.43,13.6,0.07352941176470588,1.3,3.8903430497719613,0.0007688215999999999
200.95,197.56,17773.0,5.6266e-05,1.3726,2.4842,137.47,24.41,64.544,369.63,0.10535,36.961,0.05368,supercritical,O2,C7782447,oxygen,154.58,50.43,13.6,0.07352941176470588,1.3,3.917509418996629,0.0007652176
200.95,198.93,17855.0,5.6008e-05,1.3609,2.475,137.38,24.408,64.359,371.46,0.10353,37.158,0.05391,supercritical,O2,C7782447,oxygen,154.58,50.43,13.6,0.07352941176470588,1.3,3.944675788221297,0.0007617088
200.95,200.29,17936.0,5.5755e-05,1.3493,2.466,137.3,24.405,64.175,373.29,0.10173,37.354,0.054138,supercritical,O2,C7782447,oxygen,154.58,50.43,13.6,0.07352941176470588,1.3,3.971643862780091,0.000758268
200.95,201.66,18016.0,5.5507e-05,1.3378,2.4572,137.22,24.403,63.992,375.11,0.099976,37.548,0.054365,supercritical,O2,C7782447,oxygen,154.58,50.43,13.6,0.07352941176470588,1.3,3.998810232004759,0.0007548952
200.95,203.02,18095.0,5.5265e-05,1.3265,2.4485,137.14,24.4,63.811,376.92,0.098252,37.741,0.05459,supercritical,O2,C7782447,oxygen,154.58,50.43,13.6,0.07352941176470588,1.3,4.025778306563554,0.000751604
200.95,204.38,18173.0,5.5028e-05,1.3154,2.4401,137.06,24.398,63.632,378.73,0.096561,37.933,0.054813,supercritical,O2,C7782447,oxygen,154.58,50.43,13.6,0.07352941176470588,1.3,4.052746381122348,0.0007483808
200.95,205.75,18250.0,5.4795e-05,1.3043,2.4318,136.98,24.396,63.453,380.54,0.094903,38.124,0.055035,supercritical,O2,C7782447,oxygen,154.58,50.43,13.6,0.07352941176470588,1.3,4.079912750347016,0.000745212
200.95,207.12,18326.0,5.4568e-05,1.2934,2.4236,136.9,24.394,63.277,382.33,0.093276,38.314,0.055255,supercritical,O2,C7782447,oxygen,154.58,50.43,13.6,0.07352941176470588,1.3,4.107079119571684,0.0007421248
200.95,208.48,18401.0,5.4344e-05,1.2827,2.4156,136.82,24.392,63.101,384.12,0.091679,38.502,0.055474,supercritical,O2,C7782447,oxygen,154.58,50.43,13.6,0.07352941176470588,1.3,4.134047194130478,0.0007390784
200.95,209.84,18476.0,5.4126e-05,1.272,2.4078,136.75,24.39,62.928,385.91,0.090113,38.69,0.055691,supercritical,O2,C7782447,oxygen,154.58,50.43,13.6,0.07352941176470588,1.3,4.1610152686892725,0.0007361136
200.95,211.21,18549.0,5.3911e-05,1.2615,2.4002,136.67,24.388,62.756,387.69,0.088576,38.876,0.055906,supercritical,O2,C7782447,oxygen,154.58,50.43,13.6,0.07352941176470588,1.3,4.1881816379139405,0.0007331896
200.95,212.57,18622.0,5.3701e-05,1.2511,2.3927,136.6,24.386,62.586,389.46,0.087068,39.061,0.05612,supercritical,O2,C7782447,oxygen,154.58,50.43,13.6,0.07352941176470588,1.3,4.215149712472734,0.0007303336
200.95,213.94,18693.0,5.3495e-05,1.2408,2.3853,136.53,24.385,62.417,391.22,0.085587,39.245,0.056333,supercritical,O2,C7782447,oxygen,154.58,50.43,13.6,0.07352941176470588,1.3,4.242316081697402,0.000727532
200.95,215.31,18764.0,5.3293e-05,1.2306,2.3781,136.45,24.383,62.25,392.98,0.084133,39.428,0.056544,supercritical,O2,C7782447,oxygen,154.58,50.43,13.6,0.07352941176470588,1.3,4.26948245092207,0.0007247848
200.95,216.67,18834.0,5.3094e-05,1.2206,2.371,136.38,24.382,62.085,394.74,0.082706,39.61,0.056754,supercritical,O2,C7782447,oxygen,154.58,50.43,13.6,0.07352941176470588,1.3,4.296450525480864,0.0007220783999999999
200.95,218.03,18904.0,5.29e-05,1.2106,2.364,136.31,24.38,61.922,396.48,0.081305,39.791,0.056962,supercritical,O2,C7782447,oxygen,154.58,50.43,13.6,0.07352941176470588,1.3,4.323418600039659,0.0007194399999999999
200.95,219.4,18972.0,5.2709e-05,1.2008,2.3572,136.24,24.379,61.76,398.22,0.079929,39.97,0.05717,supercritical,O2,C7782447,oxygen,154.58,50.43,13.6,0.07352941176470588,1.3,4.350584969264327,0.0007168424
200.95,220.76,19040.0,5.2521e-05,1.1911,2.3506,136.17,24.378,61.6,399.95,0.078578,40.149,0.057376,supercritical,O2,C7782447,oxygen,154.58,50.43,13.6,0.07352941176470588,1.3,4.377553043823121,0.0007142856
200.95,222.13,19107.0,5.2337e-05,1.1815,2.344,136.11,24.377,61.442,401.68,0.077251,40.327,0.05758,supercritical,O2,C7782447,oxygen,154.58,50.43,13.6,0.07352941176470588,1.3,4.404719413047789,0.0007117832
200.95,223.5,19173.0,5.2156e-05,1.172,2.3376,136.04,24.376,61.285,403.39,0.075947,40.504,0.057784,supercritical,O2,C7782447,oxygen,154.58,50.43,13.6,0.07352941176470588,1.3,4.431885782272457,0.0007093215999999999
200.95,224.86,19239.0,5.1978e-05,1.1625,2.3313,135.97,24.375,61.131,405.11,0.074666,40.68,0.057986,supercritical,O2,C7782447,oxygen,154.58,50.43,13.6,0.07352941176470588,1.3,4.458853856831252,0.0007069008
200.95,226.22,19304.0,5.1804e-05,1.1532,2.3251,135.91,24.375,60.977,406.81,0.073407,40.855,0.058187,supercritical,O2,C7782447,oxygen,154.58,50.43,13.6,0.07352941176470588,1.3,4.485821931390046,0.0007045344
200.95,227.59,19368.0,5.1632e-05,1.144,2.3191,135.84,24.374,60.826,408.51,0.072171,41.029,0.058387,supercritical,O2,C7782447,oxygen,154.58,50.43,13.6,0.07352941176470588,1.3,4.512988300614714,0.0007021952
200.95,228.96,19431.0,5.1464e-05,1.1349,2.3132,135.78,24.374,60.676,410.2,0.070955,41.202,0.058586,supercritical,O2,C7782447,oxygen,154.58,50.43,13.6,0.07352941176470588,1.3,4.5401546698393815,0.0006999104
200.95,230.32,19494.0,5.1298e-05,1.1259,2.3073,135.71,24.373,60.528,411.88,0.069761,41.374,0.058784,supercritical,O2,C7782447,oxygen,154.58,50.43,13.6,0.07352941176470588,1.3,4.5671227443981754,0.0006976528
200.95,231.69,19556.0,5.1135e-05,1.1169,2.3016,135.65,24.373,60.382,413.55,0.068586,41.545,0.05898,supercritical,O2,C7782447,oxygen,154.58,50.43,13.6,0.07352941176470588,1.3,4.594289113622843,0.0006954359999999999
200.95,233.05,19618.0,5.0975e-05,1.1081,2.296,135.59,24.373,60.237,415.22,0.067432,41.715,0.059176,supercritical,O2,C7782447,oxygen,154.58,50.43,13.6,0.07352941176470588,1.3,4.621257188181638,0.00069326
200.95,234.41,19678.0,5.0817e-05,1.0993,2.2905,135.52,24.373,60.094,416.89,0.066297,41.885,0.05937,supercritical,O2,C7782447,oxygen,154.58,50.43,13.6,0.07352941176470588,1.3,4.648225262740432,0.0006911112
200.95,235.78,19739.0,5.0662e-05,1.0907,2.2852,135.46,24.373,59.953,418.54,0.065181,42.054,0.059564,supercritical,O2,C7782447,oxygen,154.58,50.43,13.6,0.07352941176470588,1.3,4.6753916319651,0.0006890032
200.95,237.15,19798.0,5.051e-05,1.0821,2.2799,135.4,24.373,59.813,420.19,0.064083,42.222,0.059756,supercritical,O2,C7782447,oxygen,154.58,50.43,13.6,0.07352941176470588,1.3,4.702558001189768,0.000686936
200.95,238.51,19857.0,5.0359e-05,1.0736,2.2747,135.34,24.373,59.675,421.83,0.063004,42.389,0.059948,supercritical,O2,C7782447,oxygen,154.58,50.43,13.6,0.07352941176470588,1.3,4.729526075748562,0.0006848824
200.95,239.88,19916.0,5.0212e-05,1.0652,2.2696,135.28,24.373,59.539,423.46,0.061942,42.555,0.060139,supercritical,O2,C7782447,oxygen,154.58,50.43,13.6,0.07352941176470588,1.3,4.75669244497323,0.0006828832
200.95,241.24,19973.0,5.0066e-05,1.0568,2.2646,135.22,24.374,59.404,425.09,0.060897,42.72,0.060328,supercritical,O2,C7782447,oxygen,154.58,50.43,13.6,0.07352941176470588,1.3,4.783660519532025,0.0006808976
200.95,242.6,20031.0,4.9923e-05,1.0486,2.2597,135.17,24.374,59.27,426.71,0.05987,42.885,0.060517,supercritical,O2,C7782447,oxygen,154.58,50.43,13.6,0.07352941176470588,1.3,4.810628594090819,0.0006789528
200.95,243.97,20087.0,4.9782e-05,1.0404,2.2549,135.11,24.375,59.139,428.32,0.058859,43.049,0.060705,supercritical,O2,C7782447,oxygen,154.58,50.43,13.6,0.07352941176470588,1.3,4.837794963315487,0.0006770351999999999
200.95,245.34,20144.0,4.9644e-05,1.0323,2.2502,135.05,24.375,59.008,429.92,0.057864,43.212,0.060892,supercritical,O2,C7782447,oxygen,154.58,50.43,13.6,0.07352941176470588,1.3,4.864961332540155,0.0006751584
200.95,246.7,20199.0,4.9507e-05,1.0243,2.2456,134.99,24.376,58.88,431.52,0.056885,43.375,0.061078,supercritical,O2,C7782447,oxygen,154.58,50.43,13.6,0.07352941176470588,1.3,4.8919294070989485,0.0006732951999999999
200.95,248.06,20254.0,4.9372e-05,1.0163,2.2411,134.94,24.377,58.752,433.11,0.055921,43.536,0.061263,supercritical,O2,C7782447,oxygen,154.58,50.43,13.6,0.07352941176470588,1.3,4.918897481657743,0.0006714592
200.95,249.43,20309.0,4.924e-05,1.0085,2.2366,134.88,24.378,58.627,434.7,0.054972,43.697,0.061448,supercritical,O2,C7782447,oxygen,154.58,50.43,13.6,0.07352941176470588,1.3,4.946063850882411,0.000669664
200.95,250.79,20363.0,4.9109e-05,1.0007,2.2323,134.83,24.378,58.502,436.27,0.054038,43.858,0.061631,supercritical,O2,C7782447,oxygen,154.58,50.43,13.6,0.07352941176470588,1.3,4.973031925441205,0.0006678824
200.95,252.16,20416.0,4.898e-05,0.99293,2.228,134.77,24.379,58.379,437.85,0.053119,44.017,0.061814,supercritical,O2,C7782447,oxygen,154.58,50.43,13.6,0.07352941176470588,1.3,5.000198294665873,0.000666128
200.95,253.53,20469.0,4.8853e-05,0.98527,2.2238,134.72,24.381,58.258,439.41,0.052214,44.176,0.061996,supercritical,O2,C7782447,oxygen,154.58,50.43,13.6,0.07352941176470588,1.3,5.027364663890541,0.0006644007999999999
200.95,254.89,20522.0,4.8728e-05,0.97767,2.2197,134.67,24.382,58.138,440.97,0.051322,44.335,0.062178,supercritical,O2,C7782447,oxygen,154.58,50.43,13.6,0.07352941176470588,1.3,5.054332738449335,0.0006627008
200.95,256.25,20574.0,4.8605e-05,0.97015,2.2157,134.61,24.383,58.019,442.52,0.050444,44.492,0.062358,supercritical,O2,C7782447,oxygen,154.58,50.43,13.6,0.07352941176470588,1.3,5.08130081300813,0.0006610279999999999
200.95,257.62,20626.0,4.8483e-05,0.96269,2.2117,134.56,24.384,57.902,444.06,0.049579,44.649,0.062538,supercritical,O2,C7782447,oxygen,154.58,50.43,13.6,0.07352941176470588,1.3,5.108467182232798,0.0006593688
200.95,258.99,20677.0,4.8364e-05,0.9553,2.2078,134.51,24.386,57.786,445.59,0.048728,44.806,0.062717,supercritical,O2,C7782447,oxygen,154.58,50.43,13.6,0.07352941176470588,1.3,5.135633551457466,0.0006577503999999999
200.95,260.35,20727.0,4.8245e-05,0.94797,2.204,134.46,24.387,57.672,447.12,0.047889,44.961,0.062895,supercritical,O2,C7782447,oxygen,154.58,50.43,13.6,0.07352941176470588,1.3,5.162601626016261,0.000656132