Temperature (K),Pressure (bar),Density (mol/m3),Volume (m3/mol),Internal Energy (kJ/mol),Enthalpy (kJ/mol),Entropy (J/mol*K),Cv (J/mol*K),Cp (J/mol*K),Sound Spd. (m/s),Joule-Thomson (K/bar),Viscosity (uPa*s),Therm. Cond. (W/m*K),Phase,substance,substance_id,substance_name,Tc,Pc,rhoc,Vmc,Tr,Pr,Vmr
200.95,518.34,26314.0,3.8003e-05,0.13735,2.1072,128.59,25.082,47.847,656.5,-0.016244,68.697,0.089886,supercritical,O2,C7782447,oxygen,154.58,50.43,13.6,0.07352941176470588,1.3,10.278405710886378,0.0005168408
200.95,519.7,26332.0,3.7976e-05,0.13465,2.1083,128.57,25.086,47.824,657.35,-0.016379,68.807,0.090008,supercritical,O2,C7782447,oxygen,154.58,50.43,13.6,0.07352941176470588,1.3,10.305373785445173,0.0005164735999999999
200.95,521.07,26351.0,3.7949e-05,0.13195,2.1093,128.55,25.09,47.801,658.19,-0.016513,68.917,0.090129,supercritical,O2,C7782447,oxygen,154.58,50.43,13.6,0.07352941176470588,1.3,10.332540154669841,0.0005161063999999999
200.95,522.43,26370.0,3.7922e-05,0.12926,2.1104,128.53,25.093,47.778,659.02,-0.016646,69.026,0.09025,supercritical,O2,C7782447,oxygen,154.58,50.43,13.6,0.07352941176470588,1.3,10.359508229228632,0.0005157391999999999
200.95,523.79,26389.0,3.7895e-05,0.12657,2.1115,128.51,25.097,47.755,659.86,-0.016778,69.136,0.090371,supercritical,O2,C7782447,oxygen,154.58,50.43,13.6,0.07352941176470588,1.3,10.386476303787427,0.000515372
200.95,525.16,26407.0,3.7868e-05,0.1239,2.1126,128.49,25.101,47.733,660.7,-0.01691,69.245,0.090492,supercritical,O2,C7782447,oxygen,154.58,50.43,13.6,0.07352941176470588,1.3,10.413642673012095,0.0005150048
200.95,526.52,26426.0,3.7842e-05,0.12124,2.1137,128.47,25.105,47.71,661.53,-0.01704,69.355,0.090613,supercritical,O2,C7782447,oxygen,154.58,50.43,13.6,0.07352941176470588,1.3,10.44061074757089,0.0005146512
200.95,527.89,26444.0,3.7815e-05,0.11858,2.1148,128.45,25.109,47.688,662.36,-0.01717,69.464,0.090734,supercritical,O2,C7782447,oxygen,154.58,50.43,13.6,0.07352941176470588,1.3,10.467777116795558,0.000514284
200.95,529.25,26463.0,3.7789e-05,0.11594,2.1159,128.43,25.113,47.666,663.19,-0.017299,69.573,0.090854,supercritical,O2,C7782447,oxygen,154.58,50.43,13.6,0.07352941176470588,1.3,10.494745191354353,0.0005139304
200.95,530.62,26481.0,3.7763e-05,0.1133,2.1171,128.41,25.117,47.644,664.02,-0.017427,69.682,0.090975,supercritical,O2,C7782447,oxygen,154.58,50.43,13.6,0.07352941176470588,1.3,10.52191156057902,0.0005135767999999999
200.95,531.99,26499.0,3.7737e-05,0.11067,2.1182,128.39,25.121,47.622,664.85,-0.017554,69.791,0.091095,supercritical,O2,C7782447,oxygen,154.58,50.43,13.6,0.07352941176470588,1.3,10.549077929803689,0.0005132232
200.95,533.35,26518.0,3.7711e-05,0.10805,2.1194,128.37,25.125,47.6,665.67,-0.01768,69.9,0.091215,supercritical,O2,C7782447,oxygen,154.58,50.43,13.6,0.07352941176470588,1.3,10.576046004362484,0.0005128696
200.95,534.72,26536.0,3.7685e-05,0.10544,2.1205,128.35,25.129,47.579,666.49,-0.017806,70.009,0.091335,supercritical,O2,C7782447,oxygen,154.58,50.43,13.6,0.07352941176470588,1.3,10.603212373587152,0.000512516
200.95,536.08,26554.0,3.7659e-05,0.10284,2.1217,128.33,25.133,47.557,667.32,-0.017931,70.118,0.091455,supercritical,O2,C7782447,oxygen,154.58,50.43,13.6,0.07352941176470588,1.3,10.630180448145946,0.0005121624
200.95,537.45,26572.0,3.7633e-05,0.10025,2.1228,128.31,25.137,47.536,668.14,-0.018055,70.226,0.091574,supercritical,O2,C7782447,oxygen,154.58,50.43,13.6,0.07352941176470588,1.3,10.657346817370614,0.0005118087999999999
200.95,538.81,26590.0,3.7608e-05,0.09766,2.124,128.29,25.141,47.514,668.95,-0.018178,70.335,0.091694,supercritical,O2,C7782447,oxygen,154.58,50.43,13.6,0.07352941176470588,1.3,10.684314891929406,0.0005114688
200.95,540.17,26608.0,3.7582e-05,0.095082,2.1252,128.27,25.145,47.493,669.77,-0.018301,70.443,0.091813,supercritical,O2,C7782447,oxygen,154.58,50.43,13.6,0.07352941176470588,1.3,10.7112829664882,0.0005111152
200.95,541.54,26626.0,3.7557e-05,0.092513,2.1264,128.25,25.149,47.472,670.59,-0.018422,70.552,0.091932,supercritical,O2,C7782447,oxygen,154.58,50.43,13.6,0.07352941176470588,1.3,10.738449335712868,0.0005107752
200.95,542.9,26644.0,3.7532e-05,0.089952,2.1276,128.23,25.152,47.451,671.4,-0.018543,70.66,0.092051,supercritical,O2,C7782447,oxygen,154.58,50.43,13.6,0.07352941176470588,1.3,10.765417410271663,0.0005104352
200.95,544.27,26662.0,3.7507e-05,0.0874,2.1288,128.21,25.156,47.431,672.21,-0.018664,70.768,0.09217,supercritical,O2,C7782447,oxygen,154.58,50.43,13.6,0.07352941176470588,1.3,10.792583779496331,0.0005100952
200.95,545.63,26680.0,3.7482e-05,0.084855,2.13,128.2,25.16,47.41,673.02,-0.018783,70.876,0.092289,supercritical,O2,C7782447,oxygen,154.58,50.43,13.6,0.07352941176470588,1.3,10.819551854055126,0.0005097551999999999
200.95,547.0,26697.0,3.7457e-05,0.082319,2.1312,128.18,25.164,47.389,673.83,-0.018902,70.984,0.092407,supercritical,O2,C7782447,oxygen,154.58,50.43,13.6,0.07352941176470588,1.3,10.846718223279794,0.0005094151999999999
200.95,548.37,26715.0,3.7432e-05,0.079791,2.1324,128.16,25.168,47.369,674.64,-0.01902,71.092,0.092526,supercritical,O2,C7782447,oxygen,154.58,50.43,13.6,0.07352941176470588,1.3,10.873884592504462,0.0005090752
200.95,549.73,26733.0,3.7408e-05,0.07727,2.1337,128.14,25.172,47.349,675.44,-0.019137,71.2,0.092644,supercritical,O2,C7782447,oxygen,154.58,50.43,13.6,0.07352941176470588,1.3,10.900852667063257,0.0005087488
200.95,551.1,26750.0,3.7383e-05,0.074758,2.1349,128.12,25.176,47.328,676.25,-0.019254,71.308,0.092762,supercritical,O2,C7782447,oxygen,154.58,50.43,13.6,0.07352941176470588,1.3,10.928019036287925,0.0005084088
200.95,552.46,26768.0,3.7359e-05,0.072253,2.1362,128.1,25.18,47.308,677.05,-0.01937,71.416,0.09288,supercritical,O2,C7782447,oxygen,154.58,50.43,13.6,0.07352941176470588,1.3,10.95498711084672,0.0005080824
200.95,553.83,26785.0,3.7334e-05,0.069757,2.1374,128.08,25.183,47.288,677.85,-0.019485,71.523,0.092998,supercritical,O2,C7782447,oxygen,154.58,50.43,13.6,0.07352941176470588,1.3,10.982153480071387,0.0005077424
200.95,555.19,26803.0,3.731e-05,0.067268,2.1387,128.06,25.187,47.268,678.65,-0.019599,71.631,0.093116,supercritical,O2,C7782447,oxygen,154.58,50.43,13.6,0.07352941176470588,1.3,11.009121554630182,0.000507416
200.95,556.55,26820.0,3.7286e-05,0.064787,2.1399,128.04,25.191,47.249,679.45,-0.019713,71.738,0.093234,supercritical,O2,C7782447,oxygen,154.58,50.43,13.6,0.07352941176470588,1.3,11.036089629188973,0.0005070896
200.95,557.92,26837.0,3.7262e-05,0.062314,2.1412,128.02,25.195,47.229,680.24,-0.019826,71.846,0.093351,supercritical,O2,C7782447,oxygen,154.58,50.43,13.6,0.07352941176470588,1.3,11.063255998413641,0.0005067632
200.95,559.28,26854.0,3.7238e-05,0.059848,2.1425,128.0,25.199,47.209,681.04,-0.019939,71.953,0.093468,supercritical,O2,C7782447,oxygen,154.58,50.43,13.6,0.07352941176470588,1.3,11.090224072972436,0.0005064367999999999
200.95,560.65,26872.0,3.7214e-05,0.05739,2.1438,127.98,25.203,47.19,681.83,-0.02005,72.06,0.093585,supercritical,O2,C7782447,oxygen,154.58,50.43,13.6,0.07352941176470588,1.3,11.117390442197104,0.0005061104
200.95,562.01,26889.0,3.719e-05,0.05494,2.1451,127.97,25.207,47.171,682.62,-0.020161,72.168,0.093703,supercritical,O2,C7782447,oxygen,154.58,50.43,13.6,0.07352941176470588,1.3,11.144358516755899,0.000505784
200.95,563.38,26906.0,3.7167e-05,0.052497,2.1464,127.95,25.21,47.151,683.41,-0.020272,72.275,0.093819,supercritical,O2,C7782447,oxygen,154.58,50.43,13.6,0.07352941176470588,1.3,11.171524885980567,0.0005054711999999999
200.95,564.75,26923.0,3.7143e-05,0.050061,2.1477,127.93,25.214,47.132,684.2,-0.020382,72.382,0.093936,supercritical,O2,C7782447,oxygen,154.58,50.43,13.6,0.07352941176470588,1.3,11.198691255205235,0.0005051448
200.95,566.11,26940.0,3.712e-05,0.047634,2.149,127.91,25.218,47.113,684.99,-0.020491,72.489,0.094053,supercritical,O2,C7782447,oxygen,154.58,50.43,13.6,0.07352941176470588,1.3,11.22565932976403,0.000504832
200.95,567.48,26957.0,3.7096e-05,0.045213,2.1503,127.89,25.222,47.094,685.78,-0.020599,72.596,0.094169,supercritical,O2,C7782447,oxygen,154.58,50.43,13.6,0.07352941176470588,1.3,11.252825698988698,0.0005045055999999999
200.95,568.84,26974.0,3.7073e-05,0.0428,2.1517,127.87,25.226,47.075,686.56,-0.020707,72.702,0.094286,supercritical,O2,C7782447,oxygen,154.58,50.43,13.6,0.07352941176470588,1.3,11.279793773547492,0.0005041928
200.95,570.21,26991.0,3.705e-05,0.040394,2.153,127.85,25.229,47.057,687.34,-0.020814,72.809,0.094402,supercritical,O2,C7782447,oxygen,154.58,50.43,13.6,0.07352941176470588,1.3,11.30696014277216,0.00050388
200.95,571.57,27008.0,3.7027e-05,0.037996,2.1543,127.84,25.233,47.038,688.13,-0.020921,72.916,0.094518,supercritical,O2,C7782447,oxygen,154.58,50.43,13.6,0.07352941176470588,1.3,11.333928217330955,0.0005035672
200.95,572.93,27024.0,3.7004e-05,0.035604,2.1557,127.82,25.237,47.02,688.91,-0.021027,73.022,0.094634,supercritical,O2,C7782447,oxygen,154.58,50.43,13.6,0.07352941176470588,1.3,11.360896291889746,0.0005032544
200.95,574.3,27041.0,3.6981e-05,0.03322,2.157,127.8,25.241,47.001,689.68,-0.021132,73.129,0.09475,supercritical,O2,C7782447,oxygen,154.58,50.43,13.6,0.07352941176470588,1.3,11.388062661114414,0.0005029415999999999
200.95,575.66,27058.0,3.6958e-05,0.030843,2.1584,127.78,25.245,46.983,690.46,-0.021237,73.235,0.094865,supercritical,O2,C7782447,oxygen,154.58,50.43,13.6,0.07352941176470588,1.3,11.41503073567321,0.0005026288
200.95,577.03,27074.0,3.6935e-05,0.028473,2.1598,127.76,25.248,46.965,691.24,-0.021341,73.341,0.094981,supercritical,O2,C7782447,oxygen,154.58,50.43,13.6,0.07352941176470588,1.3,11.442197104897877,0.0005023159999999999
200.95,578.39,27091.0,3.6913e-05,0.02611,2.1611,127.74,25.252,46.946,692.01,-0.021444,73.448,0.095096,supercritical,O2,C7782447,oxygen,154.58,50.43,13.6,0.07352941176470588,1.3,11.469165179456672,0.0005020167999999999
200.95,579.76,27107.0,3.689e-05,0.023755,2.1625,127.73,25.256,46.928,692.79,-0.021547,73.554,0.095211,supercritical,O2,C7782447,oxygen,154.58,50.43,13.6,0.07352941176470588,1.3,11.49633154868134,0.000501704
200.95,581.12,27124.0,3.6868e-05,0.021406,2.1639,127.71,25.26,46.91,693.56,-0.021649,73.66,0.095326,supercritical,O2,C7782447,oxygen,154.58,50.43,13.6,0.07352941176470588,1.3,11.523299623240135,0.0005014048
200.95,582.49,27140.0,3.6845e-05,0.019064,2.1653,127.69,25.263,46.893,694.33,-0.021751,73.766,0.095441,supercritical,O2,C7782447,oxygen,154.58,50.43,13.6,0.07352941176470588,1.3,11.550465992464803,0.000501092
200.95,583.86,27157.0,3.6823e-05,0.016729,2.1667,127.67,25.267,46.875,695.1,-0.021852,73.872,0.095556,supercritical,O2,C7782447,oxygen,154.58,50.43,13.6,0.07352941176470588,1.3,11.57763236168947,0.0005007928000000001
200.95,585.22,27173.0,3.6801e-05,0.014401,2.1681,127.65,25.271,46.857,695.86,-0.021953,73.978,0.095671,supercritical,O2,C7782447,oxygen,154.58,50.43,13.6,0.07352941176470588,1.3,11.604600436248266,0.0005004936000000001
200.95,586.59,27189.0,3.6779e-05,0.01208,2.1695,127.64,25.275,46.84,696.63,-0.022053,74.084,0.095785,supercritical,O2,C7782447,oxygen,154.58,50.43,13.6,0.07352941176470588,1.3,11.631766805472934,0.0005001944
200.95,587.95,27206.0,3.6757e-05,0.0097656,2.1709,127.62,25.278,46.822,697.4,-0.022152,74.19,0.0959,supercritical,O2,C7782447,oxygen,154.58,50.43,13.6,0.07352941176470588,1.3,11.658734880031728,0.0004998951999999999
200.95,589.32,27222.0,3.6735e-05,0.0074579,2.1723,127.6,25.282,46.805,698.16,-0.022251,74.295,0.096014,supercritical,O2,C7782447,oxygen,154.58,50.43,13.6,0.07352941176470588,1.3,11.685901249256396,0.0004995959999999999
200.95,590.68,27238.0,3.6713e-05,0.005157,2.1737,127.58,25.286,46.787,698.92,-0.022349,74.401,0.096128,supercritical,O2,C7782447,oxygen,154.58,50.43,13.6,0.07352941176470588,1.3,11.71286932381519,0.0004992967999999999
200.95,592.04,27254.0,3.6691e-05,0.0028628,2.1752,127.56,25.29,46.77,699.68,-0.022447,74.507,0.096242,supercritical,O2,C7782447,oxygen,154.58,50.43,13.6,0.07352941176470588,1.3,11.739837398373982,0.0004989975999999999
200.95,593.41,27270.0,3.667e-05,0.00057519,2.1766,127.55,25.293,46.753,700.44,-0.022544,74.612,0.096356,supercritical,O2,C7782447,oxygen,154.58,50.43,13.6,0.07352941176470588,1.3,11.76700376759865,0.000498712
200.95,594.77,27286.0,3.6648e-05,-0.0017058,2.178,127.53,25.297,46.736,701.2,-0.022641,74.717,0.09647,supercritical,O2,C7782447,oxygen,154.58,50.43,13.6,0.07352941176470588,1.3,11.793971842157445,0.0004984128
200.95,596.14,27302.0,3.6627e-05,-0.0039802,2.1795,127.51,25.301,46.719,701.96,-0.022737,74.823,0.096584,supercritical,O2,C7782447,oxygen,154.58,50.43,13.6,0.07352941176470588,1.3,11.821138211382113,0.0004981272
200.95,597.5,27318.0,3.6605e-05,-0.0062481,2.1809,127.49,25.304,46.702,702.71,-0.022833,74.928,0.096697,supercritical,O2,C7782447,oxygen,154.58,50.43,13.6,0.07352941176470588,1.3,11.848106285940908,0.000497828
200.95,598.87,27334.0,3.6584e-05,-0.0085094,2.1824,127.48,25.308,46.685,703.47,-0.022928,75.033,0.096811,supercritical,O2,C7782447,oxygen,154.58,50.43,13.6,0.07352941176470588,1.3,11.875272655165576,0.0004975424
200.95,600.24,27350.0,3.6563e-05,-0.010764,2.1839,127.46,25.312,46.669,704.22,-0.023022,75.138,0.096924,supercritical,O2,C7782447,oxygen,154.58,50.43,13.6,0.07352941176470588,1.3,11.902439024390244,0.0004972568
200.95,601.6,27366.0,3.6542e-05,-0.013013,2.1853,127.44,25.315,46.652,704.97,-0.023116,75.244,0.097037,supercritical,O2,C7782447,oxygen,154.58,50.43,13.6,0.07352941176470588,1.3,11.929407098949039,0.0004969712
200.95,602.97,27382.0,3.6521e-05,-0.015255,2.1868,127.42,25.319,46.636,705.72,-0.023209,75.349,0.09715,supercritical,O2,C7782447,oxygen,154.58,50.43,13.6,0.07352941176470588,1.3,11.956573468173707,0.0004966856
200.95,604.33,27398.0,3.65e-05,-0.017491,2.1883,127.41,25.323,46.619,706.47,-0.023302,75.454,0.097263,supercritical,O2,C7782447,oxygen,154.58,50.43,13.6,0.07352941176470588,1.3,11.983541542732501,0.0004963999999999999
200.95,605.7,27413.0,3.6479e-05,-0.01972,2.1898,127.39,25.326,46.603,707.22,-0.023395,75.558,0.097376,supercritical,O2,C7782447,oxygen,154.58,50.43,13.6,0.07352941176470588,1.3,12.01070791195717,0.0004961144
200.95,607.06,27429.0,3.6458e-05,-0.021943,2.1913,127.37,25.33,46.587,707.97,-0.023487,75.663,0.097488,supercritical,O2,C7782447,oxygen,154.58,50.43,13.6,0.07352941176470588,1.3,12.037675986515962,0.0004958288
200.95,608.42,27445.0,3.6437e-05,-0.02416,2.1928,127.35,25.334,46.57,708.71,-0.023578,75.768,0.097601,supercritical,O2,C7782447,oxygen,154.58,50.43,13.6,0.07352941176470588,1.3,12.064644061074757,0.0004955431999999999
200.95,609.79,27460.0,3.6416e-05,-0.02637,2.1943,127.34,25.337,46.554,709.46,-0.023669,75.873,0.097713,supercritical,O2,C7782447,oxygen,154.58,50.43,13.6,0.07352941176470588,1.3,12.091810430299425,0.0004952575999999999
200.95,611.15,27476.0,3.6396e-05,-0.028575,2.1958,127.32,25.341,46.538,710.2,-0.023759,75.977,0.097826,supercritical,O2,C7782447,oxygen,154.58,50.43,13.6,0.07352941176470588,1.3,12.118778504858218,0.0004949856
200.95,612.52,27491.0,3.6375e-05,-0.030773,2.1973,127.3,25.345,46.522,710.94,-0.023849,76.082,0.097938,supercritical,O2,C7782447,oxygen,154.58,50.43,13.6,0.07352941176470588,1.3,12.145944874082886,0.0004947
200.95,613.88,27507.0,3.6355e-05,-0.032965,2.1988,127.28,25.348,46.506,711.68,-0.023939,76.186,0.09805,supercritical,O2,C7782447,oxygen,154.58,50.43,13.6,0.07352941176470588,1.3,12.172912948641681,0.000494428
200.95,615.25,27522.0,3.6334e-05,-0.035151,2.2003,127.27,25.352,46.491,712.42,-0.024028,76.291,0.098162,supercritical,O2,C7782447,oxygen,154.58,50.43,13.6,0.07352941176470588,1.3,12.200079317866349,0.0004941424
200.95,616.62,27538.0,3.6314e-05,-0.037331,2.2018,127.25,25.356,46.475,713.16,-0.024116,76.395,0.098273,supercritical,O2,C7782447,oxygen,154.58,50.43,13.6,0.07352941176470588,1.3,12.227245687091017,0.0004938703999999999
200.95,617.98,27553.0,3.6294e-05,-0.039505,2.2034,127.23,25.359,46.459,713.89,-0.024204,76.5,0.098385,supercritical,O2,C7782447,oxygen,154.58,50.43,13.6,0.07352941176470588,1.3,12.254213761649812,0.0004935984
200.95,619.35,27568.0,3.6274e-05,-0.041673,2.2049,127.22,25.363,46.444,714.63,-0.024291,76.604,0.098496,supercritical,O2,C7782447,oxygen,154.58,50.43,13.6,0.07352941176470588,1.3,12.28138013087448,0.0004933264
200.95,620.71,27583.0,3.6254e-05,-0.043835,2.2065,127.2,25.366,46.428,715.36,-0.024378,76.708,0.098608,supercritical,O2,C7782447,oxygen,154.58,50.43,13.6,0.07352941176470588,1.3,12.308348205433274,0.0004930544
200.95,622.08,27599.0,3.6234e-05,-0.045991,2.208,127.18,25.37,46.413,716.1,-0.024465,76.812,0.098719,supercritical,O2,C7782447,oxygen,154.58,50.43,13.6,0.07352941176470588,1.3,12.335514574657942,0.0004927824
200.95,623.44,27614.0,3.6214e-05,-0.048141,2.2096,127.17,25.374,46.397,716.83,-0.024551,76.916,0.09883,supercritical,O2,C7782447,oxygen,154.58,50.43,13.6,0.07352941176470588,1.3,12.362482649216737,0.0004925104000000001
200.95,624.8,27629.0,3.6194e-05,-0.050285,2.2111,127.15,25.377,46.382,717.56,-0.024637,77.02,0.098941,supercritical,O2,C7782447,oxygen,154.58,50.43,13.6,0.07352941176470588,1.3,12.38945072377553,0.0004922384
200.95,626.17,27644.0,3.6174e-05,-0.052424,2.2127,127.13,25.381,46.367,718.29,-0.024722,77.124,0.099052,supercritical,O2,C7782447,oxygen,154.58,50.43,13.6,0.07352941176470588,1.3,12.416617093000198,0.0004919664000000001
200.95,627.53,27659.0,3.6154e-05,-0.054556,2.2142,127.11,25.384,46.352,719.02,-0.024807,77.228,0.099163,supercritical,O2,C7782447,oxygen,154.58,50.43,13.6,0.07352941176470588,1.3,12.443585167558993,0.0004916944
200.95,628.9,27674.0,3.6135e-05,-0.056683,2.2158,127.1,25.388,46.337,719.74,-0.024891,77.332,0.099274,supercritical,O2,C7782447,oxygen,154.58,50.43,13.6,0.07352941176470588,1.3,12.470751536783661,0.0004914359999999999
200.95,630.26,27689.0,3.6115e-05,-0.058804,2.2174,127.08,25.392,46.322,720.47,-0.024975,77.436,0.099384,supercritical,O2,C7782447,oxygen,154.58,50.43,13.6,0.07352941176470588,1.3,12.497719611342454,0.000491164
200.95,631.63,27704.0,3.6095e-05,-0.060919,2.219,127.06,25.395,46.307,721.2,-0.025058,77.539,0.099494,supercritical,O2,C7782447,oxygen,154.58,50.43,13.6,0.07352941176470588,1.3,12.524885980567122,0.0004908919999999999
200.95,633.0,27719.0,3.6076e-05,-0.063029,2.2206,127.05,25.399,46.292,721.92,-0.025141,77.643,0.099605,supercritical,O2,C7782447,oxygen,154.58,50.43,13.6,0.07352941176470588,1.3,12.55205234979179,0.0004906336
200.95,634.36,27734.0,3.6057e-05,-0.065133,2.2222,127.03,25.402,46.277,722.64,-0.025223,77.747,0.099715,supercritical,O2,C7782447,oxygen,154.58,50.43,13.6,0.07352941176470588,1.3,12.579020424350585,0.0004903752
200.95,635.73,27749.0,3.6037e-05,-0.067231,2.2237,127.02,25.406,46.263,723.36,-0.025305,77.85,0.099825,supercritical,O2,C7782447,oxygen,154.58,50.43,13.6,0.07352941176470588,1.3,12.606186793575253,0.0004901031999999999
200.95,637.09,27764.0,3.6018e-05,-0.069324,2.2253,127.0,25.409,46.248,724.08,-0.025387,77.953,0.099935,supercritical,O2,C7782447,oxygen,154.58,50.43,13.6,0.07352941176470588,1.3,12.633154868134048,0.0004898448
200.95,638.46,27779.0,3.5999e-05,-0.071411,2.227,126.98,25.413,46.233,724.8,-0.025468,78.057,0.10004,supercritical,O2,C7782447,oxygen,154.58,50.43,13.6,0.07352941176470588,1.3,12.660321237358716,0.0004895864
200.95,639.82,27793.0,3.598e-05,-0.073492,2.2286,126.97,25.416,46.219,725.52,-0.025549,78.16,0.10015,supercritical,O2,C7782447,oxygen,154.58,50.43,13.6,0.07352941176470588,1.3,12.68728931191751,0.0004893279999999999
200.95,641.18,27808.0,3.5961e-05,-0.075568,2.2302,126.95,25.42,46.205,726.24,-0.025629,78.264,0.10026,supercritical,O2,C7782447,oxygen,154.58,50.43,13.6,0.07352941176470588,1.3,12.714257386476303,0.0004890696
200.95,642.55,27823.0,3.5942e-05,-0.077639,2.2318,126.93,25.424,46.19,726.95,-0.025709,78.367,0.10037,supercritical,O2,C7782447,oxygen,154.58,50.43,13.6,0.07352941176470588,1.3,12.741423755700971,0.0004888112
200.95,643.91,27837.0,3.5923e-05,-0.079704,2.2334,126.92,25.427,46.176,727.67,-0.025789,78.47,0.10048,supercritical,O2,C7782447,oxygen,154.58,50.43,13.6,0.07352941176470588,1.3,12.768391830259766,0.0004885528