Temperature (K),Pressure (bar),Density (mol/m3),Volume (m3/mol),Internal Energy (kJ/mol),Enthalpy (kJ/mol),Entropy (J/mol*K),Cv (J/mol*K),Cp (J/mol*K),Sound Spd. (m/s),Joule-Thomson (K/bar),Viscosity (uPa*s),Therm. Cond. (W/m*K),Phase,substance,substance_id,substance_name,Tc,Pc,rhoc,Vmc,Tr,Pr,Vmr
216.41,132.04,9955.3,0.00010045,2.8747,4.2011,148.0,23.538,55.722,289.36,0.26694,23.57,0.035287,supercritical,O2,C7782447,oxygen,154.58,50.43,13.6,0.07352941176470588,1.4,2.6182827681935357,0.00136612
216.41,133.41,10076.0,9.9248e-05,2.8568,4.1808,147.84,23.554,55.968,290.23,0.26366,23.734,0.035544,supercritical,O2,C7782447,oxygen,154.58,50.43,13.6,0.07352941176470588,1.4,2.645449137418203,0.0013497727999999998
216.41,134.77,10196.0,9.8078e-05,2.839,4.1608,147.69,23.569,56.207,291.12,0.26039,23.901,0.035802,supercritical,O2,C7782447,oxygen,154.58,50.43,13.6,0.07352941176470588,1.4,2.672417211976998,0.0013338608
216.41,136.13,10316.0,9.6938e-05,2.8212,4.1409,147.53,23.584,56.439,292.03,0.25713,24.068,0.036061,supercritical,O2,C7782447,oxygen,154.58,50.43,13.6,0.07352941176470588,1.4,2.699385286535792,0.0013183568
216.41,137.5,10435.0,9.5828e-05,2.8035,4.1212,147.38,23.598,56.663,292.96,0.25389,24.237,0.036321,supercritical,O2,C7782447,oxygen,154.58,50.43,13.6,0.07352941176470588,1.4,2.72655165576046,0.0013032608
216.41,138.87,10555.0,9.4746e-05,2.7859,4.1016,147.23,23.612,56.879,293.91,0.25066,24.407,0.036581,supercritical,O2,C7782447,oxygen,154.58,50.43,13.6,0.07352941176470588,1.4,2.753718024985128,0.0012885456
216.41,140.23,10673.0,9.3692e-05,2.7684,4.0822,147.08,23.625,57.088,294.88,0.24745,24.578,0.036841,supercritical,O2,C7782447,oxygen,154.58,50.43,13.6,0.07352941176470588,1.4,2.780686099543922,0.0012742112
216.41,141.59,10792.0,9.2665e-05,2.751,4.063,146.93,23.638,57.288,295.87,0.24426,24.751,0.037102,supercritical,O2,C7782447,oxygen,154.58,50.43,13.6,0.07352941176470588,1.4,2.8076541741027166,0.001260244
216.41,142.96,10909.0,9.1664e-05,2.7336,4.044,146.79,23.651,57.481,296.88,0.24109,24.924,0.037363,supercritical,O2,C7782447,oxygen,154.58,50.43,13.6,0.07352941176470588,1.4,2.8348205433273845,0.0012466303999999998
216.41,144.32,11027.0,9.0688e-05,2.7164,4.0252,146.64,23.663,57.665,297.9,0.23793,25.099,0.037624,supercritical,O2,C7782447,oxygen,154.58,50.43,13.6,0.07352941176470588,1.4,2.861788617886179,0.0012333568
216.41,145.69,11144.0,8.9737e-05,2.6992,4.0066,146.5,23.674,57.842,298.95,0.2348,25.274,0.037885,supercritical,O2,C7782447,oxygen,154.58,50.43,13.6,0.07352941176470588,1.4,2.888954987110847,0.0012204231999999998
216.41,147.06,11260.0,8.8809e-05,2.6821,3.9881,146.36,23.685,58.011,300.01,0.23169,25.45,0.038146,supercritical,O2,C7782447,oxygen,154.58,50.43,13.6,0.07352941176470588,1.4,2.916121356335515,0.0012078024
216.41,148.42,11376.0,8.7905e-05,2.6652,3.9699,146.22,23.696,58.171,301.09,0.2286,25.627,0.038407,supercritical,O2,C7782447,oxygen,154.58,50.43,13.6,0.07352941176470588,1.4,2.9430894308943087,0.001195508
216.41,149.78,11491.0,8.7024e-05,2.6483,3.9518,146.08,23.707,58.324,302.18,0.22553,25.805,0.038668,supercritical,O2,C7782447,oxygen,154.58,50.43,13.6,0.07352941176470588,1.4,2.9700575054531035,0.0011835264
216.41,151.15,11606.0,8.6164e-05,2.6316,3.934,145.94,23.716,58.468,303.3,0.22249,25.983,0.038928,supercritical,O2,C7782447,oxygen,154.58,50.43,13.6,0.07352941176470588,1.4,2.9972238746777715,0.0011718304
216.41,152.51,11720.0,8.5326e-05,2.615,3.9163,145.81,23.726,58.604,304.43,0.21947,26.162,0.039189,supercritical,O2,C7782447,oxygen,154.58,50.43,13.6,0.07352941176470588,1.4,3.0241919492365654,0.0011604336
216.41,153.88,11833.0,8.4509e-05,2.5984,3.8989,145.67,23.735,58.733,305.57,0.21648,26.342,0.039448,supercritical,O2,C7782447,oxygen,154.58,50.43,13.6,0.07352941176470588,1.4,3.0513583184612334,0.0011493224
216.41,155.25,11946.0,8.3711e-05,2.582,3.8816,145.54,23.744,58.854,306.73,0.21352,26.522,0.039708,supercritical,O2,C7782447,oxygen,154.58,50.43,13.6,0.07352941176470588,1.4,3.0785246876859014,0.0011384696
216.41,156.61,12058.0,8.2933e-05,2.5657,3.8646,145.41,23.752,58.967,307.91,0.21058,26.702,0.039966,supercritical,O2,C7782447,oxygen,154.58,50.43,13.6,0.07352941176470588,1.4,3.1054927622446957,0.0011278888
216.41,157.97,12169.0,8.2174e-05,2.5496,3.8477,145.28,23.761,59.072,309.1,0.20767,26.883,0.040224,supercritical,O2,C7782447,oxygen,154.58,50.43,13.6,0.07352941176470588,1.4,3.13246083680349,0.0011175664
216.41,159.34,12280.0,8.1434e-05,2.5335,3.8311,145.15,23.768,59.17,310.31,0.20479,27.064,0.040481,supercritical,O2,C7782447,oxygen,154.58,50.43,13.6,0.07352941176470588,1.4,3.159627206028158,0.0011075024000000001
216.41,160.71,12390.0,8.0712e-05,2.5176,3.8146,145.02,23.776,59.261,311.52,0.20194,27.245,0.040738,supercritical,O2,C7782447,oxygen,154.58,50.43,13.6,0.07352941176470588,1.4,3.186793575252826,0.0010976832
216.41,162.07,12499.0,8.0006e-05,2.5017,3.7984,144.9,23.783,59.344,312.76,0.19911,27.427,0.040994,supercritical,O2,C7782447,oxygen,154.58,50.43,13.6,0.07352941176470588,1.4,3.21376164981162,0.0010880816
216.41,163.44,12607.0,7.9318e-05,2.486,3.7824,144.77,23.79,59.42,314.01,0.19632,27.609,0.041249,supercritical,O2,C7782447,oxygen,154.58,50.43,13.6,0.07352941176470588,1.4,3.240928019036288,0.0010787248
216.41,164.8,12715.0,7.8647e-05,2.4705,3.7665,144.65,23.796,59.489,315.26,0.19356,27.79,0.041503,supercritical,O2,C7782447,oxygen,154.58,50.43,13.6,0.07352941176470588,1.4,3.2678960935950827,0.0010695992
216.41,166.16,12822.0,7.7991e-05,2.455,3.7509,144.53,23.802,59.551,316.54,0.19082,27.972,0.041756,supercritical,O2,C7782447,oxygen,154.58,50.43,13.6,0.07352941176470588,1.4,3.2948641681538766,0.0010606776
216.41,167.53,12928.0,7.7351e-05,2.4397,3.7355,144.41,23.808,59.607,317.82,0.18812,28.154,0.042008,supercritical,O2,C7782447,oxygen,154.58,50.43,13.6,0.07352941176470588,1.4,3.3220305373785446,0.0010519735999999999
216.41,168.9,13033.0,7.6725e-05,2.4245,3.7203,144.29,23.814,59.656,319.12,0.18545,28.336,0.042259,supercritical,O2,C7782447,oxygen,154.58,50.43,13.6,0.07352941176470588,1.4,3.3491969066032126,0.00104346
216.41,170.26,13138.0,7.6115e-05,2.4094,3.7053,144.17,23.82,59.698,320.42,0.18281,28.517,0.042509,supercritical,O2,C7782447,oxygen,154.58,50.43,13.6,0.07352941176470588,1.4,3.3761649811620065,0.0010351639999999999
216.41,171.62,13242.0,7.5519e-05,2.3944,3.6905,144.06,23.825,59.735,321.74,0.1802,28.699,0.042758,supercritical,O2,C7782447,oxygen,154.58,50.43,13.6,0.07352941176470588,1.4,3.4031330557208013,0.0010270584
216.41,172.99,13345.0,7.4936e-05,2.3796,3.6759,143.94,23.83,59.765,323.07,0.17762,28.88,0.043005,supercritical,O2,C7782447,oxygen,154.58,50.43,13.6,0.07352941176470588,1.4,3.4302994249454692,0.0010191296
216.41,174.35,13447.0,7.4367e-05,2.3649,3.6615,143.83,23.834,59.79,324.41,0.17507,29.061,0.043252,supercritical,O2,C7782447,oxygen,154.58,50.43,13.6,0.07352941176470588,1.4,3.457267499504263,0.0010113912
216.41,175.72,13548.0,7.3812e-05,2.3503,3.6474,143.72,23.839,59.808,325.75,0.17256,29.242,0.043497,supercritical,O2,C7782447,oxygen,154.58,50.43,13.6,0.07352941176470588,1.4,3.484433868728931,0.0010038432
216.41,177.09,13648.0,7.3268e-05,2.3359,3.6334,143.6,23.843,59.822,327.11,0.17008,29.422,0.043741,supercritical,O2,C7782447,oxygen,154.58,50.43,13.6,0.07352941176470588,1.4,3.511600237953599,0.0009964448
216.41,178.45,13748.0,7.2738e-05,2.3216,3.6196,143.49,23.847,59.83,328.47,0.16762,29.603,0.043984,supercritical,O2,C7782447,oxygen,154.58,50.43,13.6,0.07352941176470588,1.4,3.538568312512393,0.0009892368
216.41,179.81,13847.0,7.2219e-05,2.3074,3.606,143.39,23.851,59.833,329.85,0.1652,29.782,0.044225,supercritical,O2,C7782447,oxygen,154.58,50.43,13.6,0.07352941176470588,1.4,3.565536387071188,0.0009821784
216.41,181.18,13945.0,7.1711e-05,2.2933,3.5926,143.28,23.855,59.831,331.23,0.16282,29.962,0.044465,supercritical,O2,C7782447,oxygen,154.58,50.43,13.6,0.07352941176470588,1.4,3.592702756295856,0.0009752696000000001
216.41,182.54,14042.0,7.1216e-05,2.2794,3.5794,143.17,23.859,59.824,332.62,0.16046,30.141,0.044704,supercritical,O2,C7782447,oxygen,154.58,50.43,13.6,0.07352941176470588,1.4,3.6196708308546497,0.0009685376
216.41,183.91,14138.0,7.0731e-05,2.2656,3.5664,143.07,23.862,59.813,334.01,0.15813,30.32,0.044942,supercritical,O2,C7782447,oxygen,154.58,50.43,13.6,0.07352941176470588,1.4,3.6468372000793177,0.0009619415999999999
216.41,185.28,14234.0,7.0257e-05,2.2519,3.5536,142.96,23.866,59.797,335.42,0.15584,30.498,0.045178,supercritical,O2,C7782447,oxygen,154.58,50.43,13.6,0.07352941176470588,1.4,3.6740035693039856,0.0009554952
216.41,186.64,14328.0,6.9793e-05,2.2383,3.541,142.86,23.869,59.777,336.82,0.15358,30.676,0.045413,supercritical,O2,C7782447,oxygen,154.58,50.43,13.6,0.07352941176470588,1.4,3.70097164386278,0.0009491848
216.41,188.0,14422.0,6.9339e-05,2.2249,3.5285,142.76,23.872,59.753,338.24,0.15134,30.853,0.045646,supercritical,O2,C7782447,oxygen,154.58,50.43,13.6,0.07352941176470588,1.4,3.7279397184215743,0.0009430103999999999
216.41,189.37,14515.0,6.8895e-05,2.2116,3.5163,142.66,23.875,59.725,339.66,0.14914,31.029,0.045878,supercritical,O2,C7782447,oxygen,154.58,50.43,13.6,0.07352941176470588,1.4,3.7551060876462423,0.0009369719999999999
216.41,190.74,14607.0,6.8461e-05,2.1984,3.5042,142.56,23.877,59.693,341.08,0.14697,31.205,0.046109,supercritical,O2,C7782447,oxygen,154.58,50.43,13.6,0.07352941176470588,1.4,3.7822724568709103,0.0009310695999999999
216.41,192.1,14698.0,6.8036e-05,2.1853,3.4923,142.46,23.88,59.658,342.52,0.14483,31.381,0.046338,supercritical,O2,C7782447,oxygen,154.58,50.43,13.6,0.07352941176470588,1.4,3.8092405314297046,0.0009252895999999999
216.41,193.47,14789.0,6.762e-05,2.1724,3.4806,142.37,23.883,59.62,343.95,0.14272,31.556,0.046566,supercritical,O2,C7782447,oxygen,154.58,50.43,13.6,0.07352941176470588,1.4,3.836406900654372,0.0009196320000000001
216.41,194.83,14878.0,6.7213e-05,2.1596,3.4691,142.27,23.885,59.578,345.39,0.14064,31.73,0.046793,supercritical,O2,C7782447,oxygen,154.58,50.43,13.6,0.07352941176470588,1.4,3.863374975213167,0.0009140967999999999
216.41,196.19,14967.0,6.6814e-05,2.1469,3.4577,142.18,23.887,59.534,346.83,0.13859,31.904,0.047018,supercritical,O2,C7782447,oxygen,154.58,50.43,13.6,0.07352941176470588,1.4,3.8903430497719613,0.0009086704
216.41,197.56,15055.0,6.6423e-05,2.1343,3.4466,142.08,23.89,59.486,348.28,0.13657,32.077,0.047242,supercritical,O2,C7782447,oxygen,154.58,50.43,13.6,0.07352941176470588,1.4,3.917509418996629,0.0009033527999999999
216.41,198.93,15142.0,6.6041e-05,2.1218,3.4356,141.99,23.892,59.436,349.73,0.13458,32.25,0.047465,supercritical,O2,C7782447,oxygen,154.58,50.43,13.6,0.07352941176470588,1.4,3.944675788221297,0.0008981576
216.41,200.29,15228.0,6.5667e-05,2.1095,3.4247,141.9,23.894,59.383,351.18,0.13261,32.422,0.047686,supercritical,O2,C7782447,oxygen,154.58,50.43,13.6,0.07352941176470588,1.4,3.971643862780091,0.0008930712
216.41,201.66,15314.0,6.53e-05,2.0973,3.4141,141.81,23.896,59.327,352.64,0.13068,32.593,0.047906,supercritical,O2,C7782447,oxygen,154.58,50.43,13.6,0.07352941176470588,1.4,3.998810232004759,0.00088808
216.41,203.02,15399.0,6.494e-05,2.0851,3.4036,141.72,23.898,59.27,354.1,0.12877,32.764,0.048124,supercritical,O2,C7782447,oxygen,154.58,50.43,13.6,0.07352941176470588,1.4,4.025778306563554,0.000883184
216.41,204.38,15483.0,6.4588e-05,2.0731,3.3932,141.63,23.9,59.21,355.56,0.12689,32.934,0.048341,supercritical,O2,C7782447,oxygen,154.58,50.43,13.6,0.07352941176470588,1.4,4.052746381122348,0.0008783968
216.41,205.75,15566.0,6.4243e-05,2.0612,3.383,141.54,23.902,59.148,357.02,0.12504,33.103,0.048557,supercritical,O2,C7782447,oxygen,154.58,50.43,13.6,0.07352941176470588,1.4,4.079912750347016,0.0008737047999999999
216.41,207.12,15648.0,6.3904e-05,2.0495,3.373,141.45,23.903,59.084,358.49,0.12322,33.272,0.048772,supercritical,O2,C7782447,oxygen,154.58,50.43,13.6,0.07352941176470588,1.4,4.107079119571684,0.0008690944
216.41,208.48,15730.0,6.3572e-05,2.0378,3.3632,141.37,23.905,59.018,359.95,0.12142,33.439,0.048985,supercritical,O2,C7782447,oxygen,154.58,50.43,13.6,0.07352941176470588,1.4,4.134047194130478,0.0008645791999999999
216.41,209.84,15811.0,6.3247e-05,2.0262,3.3535,141.28,23.907,58.951,361.42,0.11965,33.607,0.049197,supercritical,O2,C7782447,oxygen,154.58,50.43,13.6,0.07352941176470588,1.4,4.1610152686892725,0.0008601592
216.41,211.21,15891.0,6.2928e-05,2.0148,3.3439,141.2,23.909,58.882,362.89,0.1179,33.773,0.049407,supercritical,O2,C7782447,oxygen,154.58,50.43,13.6,0.07352941176470588,1.4,4.1881816379139405,0.0008558208
216.41,212.57,15971.0,6.2615e-05,2.0035,3.3345,141.12,23.91,58.812,364.36,0.11618,33.939,0.049617,supercritical,O2,C7782447,oxygen,154.58,50.43,13.6,0.07352941176470588,1.4,4.215149712472734,0.000851564
216.41,213.94,16049.0,6.2308e-05,1.9922,3.3253,141.03,23.912,58.74,365.83,0.11449,34.104,0.049825,supercritical,O2,C7782447,oxygen,154.58,50.43,13.6,0.07352941176470588,1.4,4.242316081697402,0.0008473888
216.41,215.31,16127.0,6.2007e-05,1.9811,3.3161,140.95,23.913,58.667,367.3,0.11282,34.269,0.050031,supercritical,O2,C7782447,oxygen,154.58,50.43,13.6,0.07352941176470588,1.4,4.26948245092207,0.0008432952
216.41,216.67,16204.0,6.1712e-05,1.9701,3.3072,140.87,23.915,58.592,368.77,0.11117,34.433,0.050237,supercritical,O2,C7782447,oxygen,154.58,50.43,13.6,0.07352941176470588,1.4,4.296450525480864,0.0008392831999999999
216.41,218.03,16281.0,6.1422e-05,1.9592,3.2984,140.79,23.917,58.517,370.24,0.10955,34.596,0.050441,supercritical,O2,C7782447,oxygen,154.58,50.43,13.6,0.07352941176470588,1.4,4.323418600039659,0.0008353391999999999
216.41,219.4,16357.0,6.1137e-05,1.9483,3.2897,140.71,23.918,58.441,371.71,0.10796,34.758,0.050645,supercritical,O2,C7782447,oxygen,154.58,50.43,13.6,0.07352941176470588,1.4,4.350584969264327,0.0008314631999999999
216.41,220.76,16432.0,6.0858e-05,1.9376,3.2811,140.64,23.92,58.363,373.18,0.10638,34.92,0.050847,supercritical,O2,C7782447,oxygen,154.58,50.43,13.6,0.07352941176470588,1.4,4.377553043823121,0.0008276688
216.41,222.13,16506.0,6.0584e-05,1.927,3.2727,140.56,23.921,58.285,374.65,0.10484,35.081,0.051047,supercritical,O2,C7782447,oxygen,154.58,50.43,13.6,0.07352941176470588,1.4,4.404719413047789,0.0008239424
216.41,223.5,16580.0,6.0314e-05,1.9165,3.2645,140.48,23.923,58.206,376.12,0.10331,35.242,0.051247,supercritical,O2,C7782447,oxygen,154.58,50.43,13.6,0.07352941176470588,1.4,4.431885782272457,0.0008202703999999999
216.41,224.86,16653.0,6.005e-05,1.906,3.2563,140.41,23.924,58.126,377.58,0.1018,35.401,0.051446,supercritical,O2,C7782447,oxygen,154.58,50.43,13.6,0.07352941176470588,1.4,4.458853856831252,0.00081668
216.41,226.22,16725.0,5.979e-05,1.8957,3.2483,140.33,23.926,58.046,379.05,0.10032,35.561,0.051643,supercritical,O2,C7782447,oxygen,154.58,50.43,13.6,0.07352941176470588,1.4,4.485821931390046,0.000813144
216.41,227.59,16797.0,5.9535e-05,1.8855,3.2404,140.26,23.927,57.965,380.51,0.098862,35.719,0.051839,supercritical,O2,C7782447,oxygen,154.58,50.43,13.6,0.07352941176470588,1.4,4.512988300614714,0.000809676
216.41,228.96,16868.0,5.9284e-05,1.8753,3.2327,140.19,23.929,57.884,381.98,0.097423,35.877,0.052035,supercritical,O2,C7782447,oxygen,154.58,50.43,13.6,0.07352941176470588,1.4,4.5401546698393815,0.0008062623999999999
216.41,230.32,16938.0,5.9038e-05,1.8653,3.225,140.11,23.93,57.802,383.44,0.096006,36.034,0.052229,supercritical,O2,C7782447,oxygen,154.58,50.43,13.6,0.07352941176470588,1.4,4.5671227443981754,0.0008029167999999999
216.41,231.69,17008.0,5.8795e-05,1.8553,3.2175,140.04,23.932,57.72,384.9,0.094609,36.19,0.052422,supercritical,O2,C7782447,oxygen,154.58,50.43,13.6,0.07352941176470588,1.4,4.594289113622843,0.000799612
216.41,233.05,17077.0,5.8557e-05,1.8454,3.2101,139.97,23.933,57.638,386.36,0.093232,36.346,0.052614,supercritical,O2,C7782447,oxygen,154.58,50.43,13.6,0.07352941176470588,1.4,4.621257188181638,0.0007963752
216.41,234.41,17146.0,5.8323e-05,1.8356,3.2028,139.9,23.935,57.555,387.82,0.091875,36.501,0.052805,supercritical,O2,C7782447,oxygen,154.58,50.43,13.6,0.07352941176470588,1.4,4.648225262740432,0.0007931927999999999
216.41,235.78,17214.0,5.8093e-05,1.8259,3.1957,139.83,23.937,57.472,389.27,0.090539,36.656,0.052995,supercritical,O2,C7782447,oxygen,154.58,50.43,13.6,0.07352941176470588,1.4,4.6753916319651,0.0007900648
216.41,237.15,17281.0,5.7867e-05,1.8163,3.1886,139.76,23.938,57.389,390.72,0.089221,36.809,0.053184,supercritical,O2,C7782447,oxygen,154.58,50.43,13.6,0.07352941176470588,1.4,4.702558001189768,0.0007869912
216.41,238.51,17348.0,5.7645e-05,1.8068,3.1817,139.69,23.94,57.305,392.18,0.087923,36.963,0.053372,supercritical,O2,C7782447,oxygen,154.58,50.43,13.6,0.07352941176470588,1.4,4.729526075748562,0.000783972
216.41,239.88,17414.0,5.7426e-05,1.7974,3.1749,139.62,23.941,57.222,393.62,0.086643,37.115,0.053559,supercritical,O2,C7782447,oxygen,154.58,50.43,13.6,0.07352941176470588,1.4,4.75669244497323,0.0007809936
216.41,241.24,17479.0,5.7211e-05,1.788,3.1682,139.56,23.943,57.138,395.07,0.085382,37.267,0.053745,supercritical,O2,C7782447,oxygen,154.58,50.43,13.6,0.07352941176470588,1.4,4.783660519532025,0.0007780695999999999
216.41,242.6,17544.0,5.6999e-05,1.7787,3.1616,139.49,23.945,57.055,396.51,0.084139,37.418,0.05393,supercritical,O2,C7782447,oxygen,154.58,50.43,13.6,0.07352941176470588,1.4,4.810628594090819,0.0007751864
216.41,243.97,17609.0,5.6791e-05,1.7695,3.1551,139.42,23.946,56.972,397.96,0.082913,37.569,0.054114,supercritical,O2,C7782447,oxygen,154.58,50.43,13.6,0.07352941176470588,1.4,4.837794963315487,0.0007723576
216.41,245.34,17672.0,5.6586e-05,1.7604,3.1487,139.36,23.948,56.888,399.39,0.081706,37.719,0.054297,supercritical,O2,C7782447,oxygen,154.58,50.43,13.6,0.07352941176470588,1.4,4.864961332540155,0.0007695696
216.41,246.7,17736.0,5.6384e-05,1.7514,3.1424,139.29,23.95,56.805,400.83,0.080515,37.869,0.054479,supercritical,O2,C7782447,oxygen,154.58,50.43,13.6,0.07352941176470588,1.4,4.8919294070989485,0.0007668224
216.41,248.06,17798.0,5.6185e-05,1.7424,3.1362,139.23,23.951,56.721,402.26,0.079341,38.018,0.054661,supercritical,O2,C7782447,oxygen,154.58,50.43,13.6,0.07352941176470588,1.4,4.918897481657743,0.0007641159999999999
216.41,249.43,17860.0,5.599e-05,1.7335,3.1301,139.17,23.953,56.638,403.69,0.078184,38.166,0.054842,supercritical,O2,C7782447,oxygen,154.58,50.43,13.6,0.07352941176470588,1.4,4.946063850882411,0.0007614639999999999
216.41,250.79,17922.0,5.5797e-05,1.7247,3.1241,139.1,23.955,56.555,405.12,0.077043,38.314,0.055021,supercritical,O2,C7782447,oxygen,154.58,50.43,13.6,0.07352941176470588,1.4,4.973031925441205,0.0007588392
216.41,252.16,17983.0,5.5607e-05,1.716,3.1182,139.04,23.957,56.473,406.55,0.075918,38.461,0.0552,supercritical,O2,C7782447,oxygen,154.58,50.43,13.6,0.07352941176470588,1.4,5.000198294665873,0.0007562551999999999
216.41,253.53,18044.0,5.5421e-05,1.7073,3.1124,138.98,23.959,56.39,407.97,0.074809,38.608,0.055378,supercritical,O2,C7782447,oxygen,154.58,50.43,13.6,0.07352941176470588,1.4,5.027364663890541,0.0007537255999999999
216.41,254.89,18104.0,5.5237e-05,1.6987,3.1067,138.92,23.96,56.308,409.39,0.073716,38.754,0.055555,supercritical,O2,C7782447,oxygen,154.58,50.43,13.6,0.07352941176470588,1.4,5.054332738449335,0.0007512231999999999
216.41,256.25,18163.0,5.5056e-05,1.6902,3.101,138.86,23.962,56.226,410.8,0.072637,38.899,0.055732,supercritical,O2,C7782447,oxygen,154.58,50.43,13.6,0.07352941176470588,1.4,5.08130081300813,0.0007487616
216.41,257.62,18222.0,5.4877e-05,1.6818,3.0955,138.8,23.964,56.144,412.21,0.071574,39.044,0.055907,supercritical,O2,C7782447,oxygen,154.58,50.43,13.6,0.07352941176470588,1.4,5.108467182232798,0.0007463272
216.41,258.99,18281.0,5.4701e-05,1.6734,3.0901,138.74,23.966,56.062,413.62,0.070525,39.188,0.056082,supercritical,O2,C7782447,oxygen,154.58,50.43,13.6,0.07352941176470588,1.4,5.135633551457466,0.0007439335999999999
216.41,260.35,18339.0,5.4528e-05,1.6651,3.0847,138.68,23.968,55.981,415.03,0.069491,39.332,0.056256,supercritical,O2,C7782447,oxygen,154.58,50.43,13.6,0.07352941176470588,1.4,5.162601626016261,0.0007415808