Temperature (K),Pressure (bar),Density (mol/m3),Volume (m3/mol),Internal Energy (kJ/mol),Enthalpy (kJ/mol),Entropy (J/mol*K),Cv (J/mol*K),Cp (J/mol*K),Sound Spd. (m/s),Joule-Thomson (K/bar),Viscosity (uPa*s),Therm. Cond. (W/m*K),Phase,substance,substance_id,substance_name,Tc,Pc,rhoc,Vmc,Tr,Pr,Vmr
286.63,455.77,17244.0,5.7991e-05,1.1693,3.8123,96.623,14.565,33.89,505.19,0.021286,47.22,0.04554,supercritical,Ar,C7440371,argon,150.86,48.9805,13.41,0.07457121551081282,1.9,9.305131634017618,0.00077765931
286.63,457.4,17281.0,5.7866e-05,1.1644,3.8112,96.586,14.568,33.882,506.08,0.020798,47.324,0.045638,supercritical,Ar,C7440371,argon,150.86,48.9805,13.41,0.07457121551081282,1.9,9.33841018364451,0.00077598306
286.63,459.03,17318.0,5.7743e-05,1.1595,3.81,96.549,14.572,33.874,506.97,0.020315,47.428,0.045737,supercritical,Ar,C7440371,argon,150.86,48.9805,13.41,0.07457121551081282,1.9,9.371688733271403,0.0007743336300000001
286.63,460.66,17355.0,5.762e-05,1.1546,3.8089,96.512,14.576,33.865,507.85,0.019834,47.532,0.045835,supercritical,Ar,C7440371,argon,150.86,48.9805,13.41,0.07457121551081282,1.9,9.404967282898298,0.0007726842000000001
286.63,462.29,17392.0,5.7499e-05,1.1497,3.8078,96.476,14.58,33.857,508.73,0.019357,47.635,0.045934,supercritical,Ar,C7440371,argon,150.86,48.9805,13.41,0.07457121551081282,1.9,9.438245832525189,0.0007710615900000001
286.63,463.92,17428.0,5.7378e-05,1.1449,3.8068,96.44,14.584,33.848,509.62,0.018884,47.739,0.046032,supercritical,Ar,C7440371,argon,150.86,48.9805,13.41,0.07457121551081282,1.9,9.471524382152081,0.0007694389800000001
286.63,465.55,17465.0,5.7258e-05,1.1401,3.8058,96.403,14.588,33.839,510.5,0.018414,47.843,0.04613,supercritical,Ar,C7440371,argon,150.86,48.9805,13.41,0.07457121551081282,1.9,9.504802931778974,0.0007678297800000001
286.63,467.18,17501.0,5.714e-05,1.1353,3.8048,96.367,14.592,33.83,511.38,0.017948,47.946,0.046227,supercritical,Ar,C7440371,argon,150.86,48.9805,13.41,0.07457121551081282,1.9,9.538081481405866,0.0007662474000000001
286.63,468.81,17537.0,5.7022e-05,1.1305,3.8038,96.331,14.596,33.822,512.26,0.017485,48.05,0.046325,supercritical,Ar,C7440371,argon,150.86,48.9805,13.41,0.07457121551081282,1.9,9.571360031032759,0.00076466502
286.63,470.44,17573.0,5.6906e-05,1.1258,3.8028,96.296,14.6,33.813,513.14,0.017026,48.153,0.046422,supercritical,Ar,C7440371,argon,150.86,48.9805,13.41,0.07457121551081282,1.9,9.60463858065965,0.0007631094600000001
286.63,472.07,17609.0,5.679e-05,1.121,3.8019,96.26,14.604,33.804,514.02,0.01657,48.256,0.046519,supercritical,Ar,C7440371,argon,150.86,48.9805,13.41,0.07457121551081282,1.9,9.637917130286542,0.0007615539000000001
286.63,473.7,17644.0,5.6675e-05,1.1163,3.801,96.225,14.607,33.795,514.89,0.016117,48.359,0.046617,supercritical,Ar,C7440371,argon,150.86,48.9805,13.41,0.07457121551081282,1.9,9.671195679913435,0.0007600117500000001
286.63,475.33,17680.0,5.6561e-05,1.1116,3.8001,96.19,14.611,33.786,515.77,0.015667,48.462,0.046713,supercritical,Ar,C7440371,argon,150.86,48.9805,13.41,0.07457121551081282,1.9,9.704474229540327,0.0007584830100000001
286.63,476.96,17715.0,5.6448e-05,1.1069,3.7993,96.154,14.615,33.777,516.64,0.015221,48.565,0.04681,supercritical,Ar,C7440371,argon,150.86,48.9805,13.41,0.07457121551081282,1.9,9.73775277916722,0.0007569676800000001
286.63,478.59,17751.0,5.6336e-05,1.1023,3.7985,96.119,14.619,33.768,517.51,0.014778,48.668,0.046907,supercritical,Ar,C7440371,argon,150.86,48.9805,13.41,0.07457121551081282,1.9,9.77103132879411,0.0007554657600000001
286.63,480.22,17786.0,5.6225e-05,1.0976,3.7977,96.085,14.623,33.759,518.39,0.014339,48.771,0.047003,supercritical,Ar,C7440371,argon,150.86,48.9805,13.41,0.07457121551081282,1.9,9.804309878421005,0.00075397725
286.63,481.85,17821.0,5.6114e-05,1.093,3.7969,96.05,14.627,33.75,519.26,0.013902,48.874,0.047099,supercritical,Ar,C7440371,argon,150.86,48.9805,13.41,0.07457121551081282,1.9,9.837588428047898,0.00075248874
286.63,483.48,17856.0,5.6005e-05,1.0884,3.7961,96.016,14.631,33.741,520.13,0.013469,48.976,0.047195,supercritical,Ar,C7440371,argon,150.86,48.9805,13.41,0.07457121551081282,1.9,9.870866977674789,0.0007510270500000002
286.63,485.11,17890.0,5.5896e-05,1.0838,3.7954,95.981,14.634,33.732,521.0,0.013038,49.079,0.047291,supercritical,Ar,C7440371,argon,150.86,48.9805,13.41,0.07457121551081282,1.9,9.904145527301681,0.0007495653600000001
286.63,486.74,17925.0,5.5788e-05,1.0793,3.7947,95.947,14.638,33.722,521.87,0.012611,49.181,0.047387,supercritical,Ar,C7440371,argon,150.86,48.9805,13.41,0.07457121551081282,1.9,9.937424076928574,0.0007481170800000001
286.63,488.37,17959.0,5.5681e-05,1.0747,3.794,95.913,14.642,33.713,522.73,0.012187,49.284,0.047483,supercritical,Ar,C7440371,argon,150.86,48.9805,13.41,0.07457121551081282,1.9,9.970702626555466,0.0007466822100000001
286.63,490.0,17994.0,5.5575e-05,1.0702,3.7933,95.879,14.646,33.704,523.6,0.011766,49.386,0.047578,supercritical,Ar,C7440371,argon,150.86,48.9805,13.41,0.07457121551081282,1.9,10.003981176182359,0.0007452607500000001
286.63,491.63,18028.0,5.547e-05,1.0657,3.7927,95.845,14.65,33.695,524.46,0.011348,49.488,0.047673,supercritical,Ar,C7440371,argon,150.86,48.9805,13.41,0.07457121551081282,1.9,10.037259725809252,0.0007438527000000001
286.63,493.26,18062.0,5.5365e-05,1.0612,3.7921,95.811,14.654,33.685,525.33,0.010933,49.59,0.047768,supercritical,Ar,C7440371,argon,150.86,48.9805,13.41,0.07457121551081282,1.9,10.070538275436142,0.0007424446500000001
286.63,494.89,18096.0,5.5261e-05,1.0567,3.7915,95.778,14.658,33.676,526.19,0.010521,49.692,0.047863,supercritical,Ar,C7440371,argon,150.86,48.9805,13.41,0.07457121551081282,1.9,10.103816825063035,0.00074105001
286.63,496.52,18130.0,5.5158e-05,1.0522,3.7909,95.745,14.661,33.666,527.05,0.010112,49.794,0.047958,supercritical,Ar,C7440371,argon,150.86,48.9805,13.41,0.07457121551081282,1.9,10.137095374689927,0.0007396687800000001
286.63,498.15,18163.0,5.5056e-05,1.0478,3.7904,95.711,14.665,33.657,527.91,0.0097062,49.896,0.048053,supercritical,Ar,C7440371,argon,150.86,48.9805,13.41,0.07457121551081282,1.9,10.17037392431682,0.0007383009600000001
286.63,499.78,18197.0,5.4955e-05,1.0434,3.7899,95.678,14.669,33.648,528.77,0.009303,49.998,0.048147,supercritical,Ar,C7440371,argon,150.86,48.9805,13.41,0.07457121551081282,1.9,10.203652473943713,0.00073694655
286.63,501.41,18230.0,5.4854e-05,1.039,3.7894,95.645,14.673,33.638,529.63,0.0089027,50.1,0.048242,supercritical,Ar,C7440371,argon,150.86,48.9805,13.41,0.07457121551081282,1.9,10.236931023570605,0.0007355921400000001
286.63,503.04,18264.0,5.4754e-05,1.0346,3.7889,95.612,14.677,33.629,530.48,0.0085052,50.202,0.048336,supercritical,Ar,C7440371,argon,150.86,48.9805,13.41,0.07457121551081282,1.9,10.270209573197498,0.0007342511400000001
286.63,504.67,18297.0,5.4655e-05,1.0302,3.7884,95.58,14.68,33.619,531.34,0.0081105,50.303,0.04843,supercritical,Ar,C7440371,argon,150.86,48.9805,13.41,0.07457121551081282,1.9,10.30348812282439,0.00073292355
286.63,506.3,18330.0,5.4556e-05,1.0258,3.788,95.547,14.684,33.61,532.19,0.0077186,50.405,0.048524,supercritical,Ar,C7440371,argon,150.86,48.9805,13.41,0.07457121551081282,1.9,10.336766672451281,0.00073159596
286.63,507.93,18363.0,5.4458e-05,1.0215,3.7876,95.515,14.688,33.6,533.05,0.0073294,50.507,0.048618,supercritical,Ar,C7440371,argon,150.86,48.9805,13.41,0.07457121551081282,1.9,10.370045222078174,0.0007302817800000001
286.63,509.56,18395.0,5.4361e-05,1.0172,3.7872,95.482,14.692,33.591,533.9,0.006943,50.608,0.048711,supercritical,Ar,C7440371,argon,150.86,48.9805,13.41,0.07457121551081282,1.9,10.403323771705066,0.00072898101
286.63,511.19,18428.0,5.4265e-05,1.0129,3.7868,95.45,14.696,33.581,534.75,0.0065594,50.709,0.048805,supercritical,Ar,C7440371,argon,150.86,48.9805,13.41,0.07457121551081282,1.9,10.436602321331959,0.0007276936500000001
286.63,512.82,18461.0,5.4169e-05,1.0086,3.7865,95.418,14.699,33.572,535.6,0.0061784,50.811,0.048898,supercritical,Ar,C7440371,argon,150.86,48.9805,13.41,0.07457121551081282,1.9,10.469880870958852,0.0007264062900000001
286.63,514.45,18493.0,5.4074e-05,1.0043,3.7862,95.386,14.703,33.562,536.45,0.0058001,50.912,0.048991,supercritical,Ar,C7440371,argon,150.86,48.9805,13.41,0.07457121551081282,1.9,10.503159420585744,0.00072513234
286.63,516.08,18525.0,5.398e-05,1.0001,3.7859,95.355,14.707,33.552,537.3,0.0054244,51.013,0.049084,supercritical,Ar,C7440371,argon,150.86,48.9805,13.41,0.07457121551081282,1.9,10.536437970212637,0.0007238718000000001
286.63,517.71,18558.0,5.3886e-05,0.99582,3.7856,95.323,14.711,33.543,538.14,0.0050514,51.115,0.049177,supercritical,Ar,C7440371,argon,150.86,48.9805,13.41,0.07457121551081282,1.9,10.56971651983953,0.00072261126
286.63,519.34,18590.0,5.3793e-05,0.9916,3.7853,95.291,14.715,33.533,538.99,0.004681,51.216,0.04927,supercritical,Ar,C7440371,argon,150.86,48.9805,13.41,0.07457121551081282,1.9,10.602995069466422,0.0007213641300000001
286.63,520.97,18622.0,5.3701e-05,0.98739,3.7851,95.26,14.718,33.524,539.83,0.0043131,51.317,0.049362,supercritical,Ar,C7440371,argon,150.86,48.9805,13.41,0.07457121551081282,1.9,10.636273619093313,0.00072013041
286.63,522.6,18653.0,5.3609e-05,0.9832,3.7848,95.229,14.722,33.514,540.68,0.0039478,51.418,0.049455,supercritical,Ar,C7440371,argon,150.86,48.9805,13.41,0.07457121551081282,1.9,10.669552168720205,0.0007188966900000001
286.63,524.23,18685.0,5.3518e-05,0.97903,3.7846,95.197,14.726,33.504,541.52,0.0035851,51.519,0.049547,supercritical,Ar,C7440371,argon,150.86,48.9805,13.41,0.07457121551081282,1.9,10.702830718347098,0.0007176763800000001
286.63,525.86,18717.0,5.3428e-05,0.97487,3.7844,95.166,14.73,33.495,542.36,0.0032248,51.619,0.049639,supercritical,Ar,C7440371,argon,150.86,48.9805,13.41,0.07457121551081282,1.9,10.73610926797399,0.00071646948
286.63,527.49,18748.0,5.3338e-05,0.97073,3.7843,95.135,14.734,33.485,543.2,0.0028671,51.72,0.049731,supercritical,Ar,C7440371,argon,150.86,48.9805,13.41,0.07457121551081282,1.9,10.769387817600883,0.0007152625800000001
286.63,529.12,18780.0,5.3249e-05,0.9666,3.7841,95.105,14.737,33.475,544.04,0.0025118,51.821,0.049823,supercritical,Ar,C7440371,argon,150.86,48.9805,13.41,0.07457121551081282,1.9,10.802666367227774,0.0007140690900000001
286.63,530.75,18811.0,5.3161e-05,0.96249,3.784,95.074,14.741,33.466,544.87,0.0021589,51.922,0.049915,supercritical,Ar,C7440371,argon,150.86,48.9805,13.41,0.07457121551081282,1.9,10.835944916854666,0.00071288901
286.63,532.38,18842.0,5.3073e-05,0.9584,3.7839,95.043,14.745,33.456,545.71,0.0018085,52.022,0.050007,supercritical,Ar,C7440371,argon,150.86,48.9805,13.41,0.07457121551081282,1.9,10.869223466481559,0.00071170893
286.63,534.01,18873.0,5.2986e-05,0.95432,3.7838,95.013,14.749,33.446,546.55,0.0014605,52.123,0.050098,supercritical,Ar,C7440371,argon,150.86,48.9805,13.41,0.07457121551081282,1.9,10.902502016108452,0.00071054226
286.63,535.64,18904.0,5.2899e-05,0.95025,3.7837,94.983,14.752,33.437,547.38,0.0011148,52.224,0.05019,supercritical,Ar,C7440371,argon,150.86,48.9805,13.41,0.07457121551081282,1.9,10.935780565735344,0.0007093755900000001
286.63,537.27,18935.0,5.2813e-05,0.94621,3.7837,94.952,14.756,33.427,548.21,0.00077157,52.324,0.050281,supercritical,Ar,C7440371,argon,150.86,48.9805,13.41,0.07457121551081282,1.9,10.969059115362235,0.0007082223300000001
286.63,538.9,18965.0,5.2727e-05,0.94217,3.7837,94.922,14.76,33.417,549.04,0.00043064,52.425,0.050372,supercritical,Ar,C7440371,argon,150.86,48.9805,13.41,0.07457121551081282,1.9,11.002337664989128,0.0007070690700000001
286.63,540.53,18996.0,5.2643e-05,0.93815,3.7836,94.892,14.764,33.408,549.87,9.2025e-05,52.525,0.050463,supercritical,Ar,C7440371,argon,150.86,48.9805,13.41,0.07457121551081282,1.9,11.03561621461602,0.0007059426300000001
286.63,542.16,19027.0,5.2558e-05,0.93415,3.7836,94.862,14.767,33.398,550.7,-0.00024429,52.625,0.050554,supercritical,Ar,C7440371,argon,150.86,48.9805,13.41,0.07457121551081282,1.9,11.068894764242913,0.0007048027800000001
286.63,543.79,19057.0,5.2474e-05,0.93016,3.7837,94.832,14.771,33.389,551.53,-0.00057832,52.726,0.050645,supercritical,Ar,C7440371,argon,150.86,48.9805,13.41,0.07457121551081282,1.9,11.102173313869805,0.00070367634
286.63,545.42,19087.0,5.2391e-05,0.92618,3.7837,94.803,14.775,33.379,552.36,-0.00091009,52.826,0.050735,supercritical,Ar,C7440371,argon,150.86,48.9805,13.41,0.07457121551081282,1.9,11.135451863496696,0.0007025633100000001
286.63,547.05,19117.0,5.2309e-05,0.92222,3.7838,94.773,14.779,33.369,553.18,-0.0012396,52.926,0.050826,supercritical,Ar,C7440371,argon,150.86,48.9805,13.41,0.07457121551081282,1.9,11.168730413123589,0.00070146369
286.63,548.68,19147.0,5.2226e-05,0.91828,3.7838,94.744,14.782,33.36,554.01,-0.0015669,53.026,0.050916,supercritical,Ar,C7440371,argon,150.86,48.9805,13.41,0.07457121551081282,1.9,11.202008962750481,0.00070035066
286.63,550.31,19177.0,5.2145e-05,0.91435,3.7839,94.714,14.786,33.35,554.83,-0.001892,53.127,0.051006,supercritical,Ar,C7440371,argon,150.86,48.9805,13.41,0.07457121551081282,1.9,11.235287512377374,0.0006992644500000002
286.63,551.94,19207.0,5.2064e-05,0.91043,3.784,94.685,14.79,33.34,555.66,-0.002215,53.227,0.051096,supercritical,Ar,C7440371,argon,150.86,48.9805,13.41,0.07457121551081282,1.9,11.268566062004268,0.00069817824
286.63,553.57,19237.0,5.1983e-05,0.90653,3.7842,94.656,14.793,33.331,556.48,-0.0025357,53.327,0.051186,supercritical,Ar,C7440371,argon,150.86,48.9805,13.41,0.07457121551081282,1.9,11.30184461163116,0.0006970920300000001
286.63,555.2,19267.0,5.1903e-05,0.90264,3.7843,94.627,14.797,33.321,557.3,-0.0028543,53.427,0.051276,supercritical,Ar,C7440371,argon,150.86,48.9805,13.41,0.07457121551081282,1.9,11.335123161258053,0.00069601923
286.63,556.83,19296.0,5.1824e-05,0.89877,3.7845,94.598,14.801,33.311,558.12,-0.0031708,53.527,0.051366,supercritical,Ar,C7440371,argon,150.86,48.9805,13.41,0.07457121551081282,1.9,11.368401710884944,0.00069495984
286.63,558.46,19326.0,5.1745e-05,0.89491,3.7847,94.569,14.805,33.302,558.93,-0.0034852,53.627,0.051456,supercritical,Ar,C7440371,argon,150.86,48.9805,13.41,0.07457121551081282,1.9,11.401680260511837,0.00069390045
286.63,560.09,19355.0,5.1667e-05,0.89107,3.7849,94.541,14.808,33.292,559.75,-0.0037975,53.726,0.051545,supercritical,Ar,C7440371,argon,150.86,48.9805,13.41,0.07457121551081282,1.9,11.43495881013873,0.0006928544700000001
286.63,561.72,19384.0,5.1589e-05,0.88724,3.7851,94.512,14.812,33.283,560.56,-0.0041077,53.826,0.051634,supercritical,Ar,C7440371,argon,150.86,48.9805,13.41,0.07457121551081282,1.9,11.468237359765622,0.00069180849
286.63,563.35,19413.0,5.1511e-05,0.88342,3.7853,94.483,14.816,33.273,561.38,-0.0044158,53.926,0.051724,supercritical,Ar,C7440371,argon,150.86,48.9805,13.41,0.07457121551081282,1.9,11.501515909392515,0.0006907625100000001
286.63,564.98,19442.0,5.1434e-05,0.87961,3.7856,94.455,14.819,33.264,562.19,-0.004722,54.026,0.051813,supercritical,Ar,C7440371,argon,150.86,48.9805,13.41,0.07457121551081282,1.9,11.534794459019405,0.0006897299400000001
286.63,566.61,19471.0,5.1358e-05,0.87582,3.7858,94.427,14.823,33.254,563.0,-0.0050261,54.126,0.051902,supercritical,Ar,C7440371,argon,150.86,48.9805,13.41,0.07457121551081282,1.9,11.568073008646298,0.0006887107800000001
286.63,568.24,19500.0,5.1282e-05,0.87205,3.7861,94.399,14.827,33.244,563.81,-0.0053282,54.225,0.051991,supercritical,Ar,C7440371,argon,150.86,48.9805,13.41,0.07457121551081282,1.9,11.60135155827319,0.0006876916200000001
286.63,569.87,19529.0,5.1207e-05,0.86829,3.7864,94.37,14.83,33.235,564.62,-0.0056283,54.325,0.05208,supercritical,Ar,C7440371,argon,150.86,48.9805,13.41,0.07457121551081282,1.9,11.634630107900083,0.00068668587
286.63,571.5,19557.0,5.1132e-05,0.86454,3.7867,94.342,14.834,33.225,565.43,-0.0059264,54.424,0.052168,supercritical,Ar,C7440371,argon,150.86,48.9805,13.41,0.07457121551081282,1.9,11.667908657526976,0.00068568012
286.63,573.13,19586.0,5.1057e-05,0.8608,3.787,94.315,14.838,33.216,566.24,-0.0062226,54.524,0.052257,supercritical,Ar,C7440371,argon,150.86,48.9805,13.41,0.07457121551081282,1.9,11.701187207153868,0.0006846743700000001
286.63,574.76,19614.0,5.0983e-05,0.85708,3.7874,94.287,14.842,33.206,567.05,-0.0065168,54.624,0.052345,supercritical,Ar,C7440371,argon,150.86,48.9805,13.41,0.07457121551081282,1.9,11.734465756780759,0.0006836820300000001
286.63,576.39,19643.0,5.091e-05,0.85337,3.7877,94.259,14.845,33.197,567.85,-0.0068092,54.723,0.052434,supercritical,Ar,C7440371,argon,150.86,48.9805,13.41,0.07457121551081282,1.9,11.767744306407652,0.0006827031
286.63,578.02,19671.0,5.0836e-05,0.84967,3.7881,94.231,14.849,33.187,568.66,-0.0070996,54.822,0.052522,supercritical,Ar,C7440371,argon,150.86,48.9805,13.41,0.07457121551081282,1.9,11.801022856034544,0.0006817107600000001
286.63,579.65,19699.0,5.0764e-05,0.84599,3.7885,94.204,14.853,33.178,569.46,-0.0073882,54.922,0.05261,supercritical,Ar,C7440371,argon,150.86,48.9805,13.41,0.07457121551081282,1.9,11.834301405661437,0.00068074524
286.63,581.28,19727.0,5.0692e-05,0.84232,3.7889,94.176,14.856,33.169,570.26,-0.0076748,55.021,0.052698,supercritical,Ar,C7440371,argon,150.86,48.9805,13.41,0.07457121551081282,1.9,11.86757995528833,0.0006797797200000001
286.63,582.91,19755.0,5.062e-05,0.83866,3.7893,94.149,14.86,33.159,571.06,-0.0079597,55.12,0.052786,supercritical,Ar,C7440371,argon,150.86,48.9805,13.41,0.07457121551081282,1.9,11.90085850491522,0.0006788142000000001
286.63,584.54,19783.0,5.0549e-05,0.83502,3.7898,94.122,14.864,33.15,571.86,-0.0082426,55.22,0.052874,supercritical,Ar,C7440371,argon,150.86,48.9805,13.41,0.07457121551081282,1.9,11.934137054542113,0.0006778620900000001
286.63,586.17,19811.0,5.0478e-05,0.83139,3.7902,94.095,14.867,33.14,572.66,-0.0085238,55.319,0.052961,supercritical,Ar,C7440371,argon,150.86,48.9805,13.41,0.07457121551081282,1.9,11.967415604169005,0.00067690998
286.63,587.8,19838.0,5.0407e-05,0.82777,3.7907,94.068,14.871,33.131,573.45,-0.0088031,55.418,0.053049,supercritical,Ar,C7440371,argon,150.86,48.9805,13.41,0.07457121551081282,1.9,12.000694153795898,0.00067595787
286.63,589.43,19866.0,5.0337e-05,0.82416,3.7912,94.041,14.875,33.122,574.25,-0.0090807,55.517,0.053136,supercritical,Ar,C7440371,argon,150.86,48.9805,13.41,0.07457121551081282,1.9,12.03397270342279,0.0006750191700000001
286.63,591.06,19894.0,5.0268e-05,0.82057,3.7917,94.014,14.878,33.112,575.05,-0.0093565,55.616,0.053224,supercritical,Ar,C7440371,argon,150.86,48.9805,13.41,0.07457121551081282,1.9,12.067251253049681,0.0006740938800000001
286.63,592.69,19921.0,5.0198e-05,0.81699,3.7922,93.987,14.882,33.103,575.84,-0.0096305,55.716,0.053311,supercritical,Ar,C7440371,argon,150.86,48.9805,13.41,0.07457121551081282,1.9,12.100529802676578,0.0006731551800000001
286.63,594.32,19948.0,5.013e-05,0.81342,3.7927,93.96,14.886,33.094,576.63,-0.0099028,55.815,0.053398,supercritical,Ar,C7440371,argon,150.86,48.9805,13.41,0.07457121551081282,1.9,12.133808352303468,0.0006722433000000001
286.63,595.95,19976.0,5.0061e-05,0.80986,3.7933,93.934,14.889,33.084,577.42,-0.010173,55.914,0.053485,supercritical,Ar,C7440371,argon,150.86,48.9805,13.41,0.07457121551081282,1.9,12.167086901930361,0.00067131801
286.63,597.58,20003.0,4.9993e-05,0.80632,3.7938,93.907,14.893,33.075,578.21,-0.010442,56.013,0.053572,supercritical,Ar,C7440371,argon,150.86,48.9805,13.41,0.07457121551081282,1.9,12.200365451557253,0.00067040613
286.63,599.21,20030.0,4.9926e-05,0.80279,3.7944,93.881,14.896,33.066,579.0,-0.010709,56.112,0.053659,supercritical,Ar,C7440371,argon,150.86,48.9805,13.41,0.07457121551081282,1.9,12.233644001184146,0.0006695076600000001
286.63,600.84,20057.0,4.9859e-05,0.79927,3.795,93.854,14.9,33.056,579.79,-0.010975,56.21,0.053746,supercritical,Ar,C7440371,argon,150.86,48.9805,13.41,0.07457121551081282,1.9,12.266922550811039,0.00066860919
286.63,602.47,20084.0,4.9792e-05,0.79576,3.7956,93.828,14.904,33.047,580.58,-0.011238,56.309,0.053832,supercritical,Ar,C7440371,argon,150.86,48.9805,13.41,0.07457121551081282,1.9,12.30020110043793,0.0006677107200000001