Temperature (K),Pressure (bar),Density (mol/m3),Volume (m3/mol),Internal Energy (kJ/mol),Enthalpy (kJ/mol),Entropy (J/mol*K),Cv (J/mol*K),Cp (J/mol*K),Sound Spd. (m/s),Joule-Thomson (K/bar),Viscosity (uPa*s),Therm. Cond. (W/m*K),Phase,substance,substance_id,substance_name,Tc,Pc,rhoc,Vmc,Tr,Pr,Vmr
256.46,423.17,18761.0,5.3301e-05,0.52205,2.7776,93.475,14.906,36.487,503.67,0.02282,49.801,0.048095,supercritical,Ar,C7440371,argon,150.86,48.9805,13.41,0.07457121551081282,1.6999999999999997,8.639560641479774,0.00071476641
256.46,424.8,18801.0,5.319e-05,0.51675,2.7763,93.436,14.91,36.466,504.7,0.022273,49.928,0.048209,supercritical,Ar,C7440371,argon,150.86,48.9805,13.41,0.07457121551081282,1.6999999999999997,8.672839191106664,0.0007132779
256.46,426.43,18840.0,5.3079e-05,0.51148,2.7749,93.397,14.914,36.444,505.73,0.02173,50.055,0.048322,supercritical,Ar,C7440371,argon,150.86,48.9805,13.41,0.07457121551081282,1.6999999999999997,8.706117740733557,0.0007117893900000001
256.46,428.06,18879.0,5.297e-05,0.50623,2.7737,93.358,14.918,36.423,506.75,0.021192,50.182,0.048435,supercritical,Ar,C7440371,argon,150.86,48.9805,13.41,0.07457121551081282,1.6999999999999997,8.73939629036045,0.0007103277000000001
256.46,429.69,18917.0,5.2862e-05,0.50101,2.7724,93.32,14.922,36.402,507.77,0.020659,50.309,0.048548,supercritical,Ar,C7440371,argon,150.86,48.9805,13.41,0.07457121551081282,1.6999999999999997,8.772674839987342,0.0007088794200000001
256.46,431.32,18956.0,5.2754e-05,0.49582,2.7712,93.281,14.926,36.381,508.79,0.02013,50.436,0.04866,supercritical,Ar,C7440371,argon,150.86,48.9805,13.41,0.07457121551081282,1.6999999999999997,8.805953389614235,0.00070743114
256.46,432.95,18994.0,5.2648e-05,0.49065,2.77,93.243,14.93,36.36,509.81,0.019606,50.562,0.048772,supercritical,Ar,C7440371,argon,150.86,48.9805,13.41,0.07457121551081282,1.6999999999999997,8.839231939241126,0.0007060096800000001
256.46,434.58,19032.0,5.2542e-05,0.48551,2.7689,93.205,14.934,36.339,510.82,0.019087,50.688,0.048884,supercritical,Ar,C7440371,argon,150.86,48.9805,13.41,0.07457121551081282,1.6999999999999997,8.872510488868018,0.00070458822
256.46,436.21,19070.0,5.2438e-05,0.48039,2.7678,93.168,14.938,36.318,511.83,0.018572,50.815,0.048996,supercritical,Ar,C7440371,argon,150.86,48.9805,13.41,0.07457121551081282,1.6999999999999997,8.90578903849491,0.0007031935800000001
256.46,437.84,19108.0,5.2334e-05,0.4753,2.7667,93.13,14.942,36.297,512.85,0.018062,50.941,0.049108,supercritical,Ar,C7440371,argon,150.86,48.9805,13.41,0.07457121551081282,1.6999999999999997,8.939067588121803,0.00070179894
256.46,439.47,19146.0,5.2231e-05,0.47023,2.7656,93.093,14.946,36.276,513.86,0.017557,51.067,0.049219,supercritical,Ar,C7440371,argon,150.86,48.9805,13.41,0.07457121551081282,1.6999999999999997,8.972346137748696,0.0007004177100000001
256.46,441.1,19183.0,5.213e-05,0.46519,2.7646,93.056,14.95,36.256,514.86,0.017055,51.193,0.04933,supercritical,Ar,C7440371,argon,150.86,48.9805,13.41,0.07457121551081282,1.6999999999999997,9.005624687375589,0.0006990633
256.46,442.73,19220.0,5.2029e-05,0.46017,2.7636,93.019,14.954,36.235,515.87,0.016558,51.319,0.049441,supercritical,Ar,C7440371,argon,150.86,48.9805,13.41,0.07457121551081282,1.6999999999999997,9.038903237002481,0.00069770889
256.46,444.36,19257.0,5.1928e-05,0.45517,2.7627,92.982,14.958,36.214,516.87,0.016066,51.445,0.049551,supercritical,Ar,C7440371,argon,150.86,48.9805,13.41,0.07457121551081282,1.6999999999999997,9.072181786629374,0.0006963544800000001
256.46,445.99,19294.0,5.1829e-05,0.4502,2.7617,92.945,14.962,36.194,517.87,0.015577,51.57,0.049661,supercritical,Ar,C7440371,argon,150.86,48.9805,13.41,0.07457121551081282,1.6999999999999997,9.105460336256266,0.0006950268900000001
256.46,447.62,19331.0,5.1731e-05,0.44526,2.7608,92.909,14.966,36.173,518.87,0.015093,51.696,0.049771,supercritical,Ar,C7440371,argon,150.86,48.9805,13.41,0.07457121551081282,1.6999999999999997,9.138738885883157,0.0006937127100000001
256.46,449.25,19367.0,5.1633e-05,0.44034,2.76,92.873,14.97,36.153,519.87,0.014613,51.821,0.049881,supercritical,Ar,C7440371,argon,150.86,48.9805,13.41,0.07457121551081282,1.6999999999999997,9.17201743551005,0.00069239853
256.46,450.88,19404.0,5.1536e-05,0.43544,2.7591,92.837,14.974,36.132,520.87,0.014137,51.947,0.049991,supercritical,Ar,C7440371,argon,150.86,48.9805,13.41,0.07457121551081282,1.6999999999999997,9.205295985136942,0.0006910977600000001
256.46,452.51,19440.0,5.144e-05,0.43056,2.7583,92.801,14.978,36.112,521.86,0.013665,52.072,0.0501,supercritical,Ar,C7440371,argon,150.86,48.9805,13.41,0.07457121551081282,1.6999999999999997,9.238574534763835,0.0006898104000000001
256.46,454.14,19476.0,5.1345e-05,0.42571,2.7575,92.765,14.982,36.091,522.85,0.013197,52.197,0.050209,supercritical,Ar,C7440371,argon,150.86,48.9805,13.41,0.07457121551081282,1.6999999999999997,9.271853084390727,0.00068853645
256.46,455.77,19512.0,5.1251e-05,0.42088,2.7567,92.729,14.986,36.071,523.84,0.012734,52.322,0.050318,supercritical,Ar,C7440371,argon,150.86,48.9805,13.41,0.07457121551081282,1.6999999999999997,9.305131634017618,0.00068727591
256.46,457.4,19548.0,5.1157e-05,0.41607,2.756,92.694,14.99,36.051,524.83,0.012274,52.447,0.050427,supercritical,Ar,C7440371,argon,150.86,48.9805,13.41,0.07457121551081282,1.6999999999999997,9.33841018364451,0.00068601537
256.46,459.03,19583.0,5.1064e-05,0.41129,2.7553,92.659,14.995,36.031,525.82,0.011817,52.572,0.050535,supercritical,Ar,C7440371,argon,150.86,48.9805,13.41,0.07457121551081282,1.6999999999999997,9.371688733271403,0.00068476824
256.46,460.66,19619.0,5.0972e-05,0.40653,2.7546,92.624,14.999,36.011,526.8,0.011365,52.696,0.050643,supercritical,Ar,C7440371,argon,150.86,48.9805,13.41,0.07457121551081282,1.6999999999999997,9.404967282898298,0.0006835345200000001
256.46,462.29,19654.0,5.0881e-05,0.40179,2.754,92.589,15.003,35.991,527.78,0.010917,52.821,0.050752,supercritical,Ar,C7440371,argon,150.86,48.9805,13.41,0.07457121551081282,1.6999999999999997,9.438245832525189,0.0006823142100000001
256.46,463.92,19689.0,5.079e-05,0.39707,2.7533,92.554,15.007,35.971,528.76,0.010472,52.946,0.050859,supercritical,Ar,C7440371,argon,150.86,48.9805,13.41,0.07457121551081282,1.6999999999999997,9.471524382152081,0.0006810939000000001
256.46,465.55,19724.0,5.07e-05,0.39237,2.7527,92.519,15.011,35.951,529.74,0.010031,53.07,0.050967,supercritical,Ar,C7440371,argon,150.86,48.9805,13.41,0.07457121551081282,1.6999999999999997,9.504802931778974,0.000679887
256.46,467.18,19758.0,5.0611e-05,0.3877,2.7522,92.485,15.015,35.931,530.72,0.0095939,53.194,0.051074,supercritical,Ar,C7440371,argon,150.86,48.9805,13.41,0.07457121551081282,1.6999999999999997,9.538081481405866,0.0006786935100000001
256.46,468.81,19793.0,5.0523e-05,0.38305,2.7516,92.451,15.019,35.911,531.69,0.0091602,53.319,0.051181,supercritical,Ar,C7440371,argon,150.86,48.9805,13.41,0.07457121551081282,1.6999999999999997,9.571360031032759,0.00067751343
256.46,470.44,19828.0,5.0435e-05,0.37842,2.7511,92.416,15.023,35.891,532.67,0.0087301,53.443,0.051288,supercritical,Ar,C7440371,argon,150.86,48.9805,13.41,0.07457121551081282,1.6999999999999997,9.60463858065965,0.0006763333500000001
256.46,472.07,19862.0,5.0348e-05,0.37381,2.7506,92.382,15.027,35.872,533.64,0.0083036,53.567,0.051395,supercritical,Ar,C7440371,argon,150.86,48.9805,13.41,0.07457121551081282,1.6999999999999997,9.637917130286542,0.00067516668
256.46,473.7,19896.0,5.0262e-05,0.36922,2.7501,92.349,15.031,35.852,534.61,0.0078806,53.691,0.051502,supercritical,Ar,C7440371,argon,150.86,48.9805,13.41,0.07457121551081282,1.6999999999999997,9.671195679913435,0.0006740134200000001
256.46,475.33,19930.0,5.0176e-05,0.36465,2.7497,92.315,15.035,35.832,535.57,0.0074611,53.815,0.051608,supercritical,Ar,C7440371,argon,150.86,48.9805,13.41,0.07457121551081282,1.6999999999999997,9.704474229540327,0.0006728601600000001
256.46,476.96,19964.0,5.0091e-05,0.3601,2.7492,92.281,15.039,35.813,536.54,0.007045,53.939,0.051714,supercritical,Ar,C7440371,argon,150.86,48.9805,13.41,0.07457121551081282,1.6999999999999997,9.73775277916722,0.0006717203100000001
256.46,478.59,19997.0,5.0006e-05,0.35558,2.7488,92.248,15.043,35.794,537.5,0.0066322,54.062,0.05182,supercritical,Ar,C7440371,argon,150.86,48.9805,13.41,0.07457121551081282,1.6999999999999997,9.77103132879411,0.00067058046
256.46,480.22,20031.0,4.9923e-05,0.35107,2.7485,92.215,15.047,35.774,538.46,0.0062229,54.186,0.051926,supercritical,Ar,C7440371,argon,150.86,48.9805,13.41,0.07457121551081282,1.6999999999999997,9.804309878421005,0.0006694674300000001
256.46,481.85,20064.0,4.984e-05,0.34659,2.7481,92.182,15.051,35.755,539.42,0.0058169,54.31,0.052032,supercritical,Ar,C7440371,argon,150.86,48.9805,13.41,0.07457121551081282,1.6999999999999997,9.837588428047898,0.0006683544
256.46,483.48,20098.0,4.9757e-05,0.34212,2.7478,92.149,15.055,35.736,540.38,0.0054142,54.433,0.052137,supercritical,Ar,C7440371,argon,150.86,48.9805,13.41,0.07457121551081282,1.6999999999999997,9.870866977674789,0.00066724137
256.46,485.11,20131.0,4.9675e-05,0.33768,2.7475,92.116,15.059,35.717,541.33,0.0050147,54.556,0.052242,supercritical,Ar,C7440371,argon,150.86,48.9805,13.41,0.07457121551081282,1.6999999999999997,9.904145527301681,0.0006661417500000001
256.46,486.74,20164.0,4.9594e-05,0.33325,2.7472,92.083,15.063,35.698,542.29,0.0046184,54.68,0.052347,supercritical,Ar,C7440371,argon,150.86,48.9805,13.41,0.07457121551081282,1.6999999999999997,9.937424076928574,0.00066505554
256.46,488.37,20196.0,4.9514e-05,0.32884,2.7469,92.051,15.067,35.679,543.24,0.0042253,54.803,0.052452,supercritical,Ar,C7440371,argon,150.86,48.9805,13.41,0.07457121551081282,1.6999999999999997,9.970702626555466,0.0006639827400000001
256.46,490.0,20229.0,4.9434e-05,0.32446,2.7467,92.019,15.071,35.66,544.19,0.0038354,54.926,0.052557,supercritical,Ar,C7440371,argon,150.86,48.9805,13.41,0.07457121551081282,1.6999999999999997,10.003981176182359,0.0006629099400000001
256.46,491.63,20262.0,4.9354e-05,0.32009,2.7465,91.986,15.075,35.641,545.14,0.0034486,55.049,0.052661,supercritical,Ar,C7440371,argon,150.86,48.9805,13.41,0.07457121551081282,1.6999999999999997,10.037259725809252,0.0006618371400000001
256.46,493.26,20294.0,4.9276e-05,0.31574,2.7463,91.954,15.079,35.622,546.08,0.0030648,55.172,0.052765,supercritical,Ar,C7440371,argon,150.86,48.9805,13.41,0.07457121551081282,1.6999999999999997,10.070538275436142,0.0006607911600000001
256.46,494.89,20326.0,4.9197e-05,0.31141,2.7461,91.922,15.083,35.603,547.03,0.0026841,55.295,0.052869,supercritical,Ar,C7440371,argon,150.86,48.9805,13.41,0.07457121551081282,1.6999999999999997,10.103816825063035,0.0006597317700000001
256.46,496.52,20358.0,4.912e-05,0.3071,2.746,91.891,15.087,35.585,547.97,0.0023064,55.417,0.052973,supercritical,Ar,C7440371,argon,150.86,48.9805,13.41,0.07457121551081282,1.6999999999999997,10.137095374689927,0.0006586992000000001
256.46,498.15,20390.0,4.9043e-05,0.30281,2.7459,91.859,15.091,35.566,548.91,0.0019317,55.54,0.053077,supercritical,Ar,C7440371,argon,150.86,48.9805,13.41,0.07457121551081282,1.6999999999999997,10.17037392431682,0.0006576666300000001
256.46,499.78,20422.0,4.8966e-05,0.29854,2.7458,91.827,15.095,35.548,549.85,0.00156,55.663,0.05318,supercritical,Ar,C7440371,argon,150.86,48.9805,13.41,0.07457121551081282,1.6999999999999997,10.203652473943713,0.00065663406
256.46,501.41,20454.0,4.889e-05,0.29428,2.7457,91.796,15.099,35.529,550.79,0.0011912,55.785,0.053284,supercritical,Ar,C7440371,argon,150.86,48.9805,13.41,0.07457121551081282,1.6999999999999997,10.236931023570605,0.0006556149000000001
256.46,503.04,20486.0,4.8815e-05,0.29005,2.7456,91.765,15.103,35.511,551.72,0.0008252,55.907,0.053387,supercritical,Ar,C7440371,argon,150.86,48.9805,13.41,0.07457121551081282,1.6999999999999997,10.270209573197498,0.0006546091500000001
256.46,504.67,20517.0,4.874e-05,0.28583,2.7456,91.734,15.107,35.493,552.65,0.00046211,56.03,0.05349,supercritical,Ar,C7440371,argon,150.86,48.9805,13.41,0.07457121551081282,1.6999999999999997,10.30348812282439,0.0006536034
256.46,506.3,20548.0,4.8666e-05,0.28163,2.7456,91.702,15.111,35.474,553.59,0.00010185,56.152,0.053593,supercritical,Ar,C7440371,argon,150.86,48.9805,13.41,0.07457121551081282,1.6999999999999997,10.336766672451281,0.0006526110600000001
256.46,507.93,20580.0,4.8592e-05,0.27745,2.7456,91.672,15.115,35.456,554.52,-0.00025562,56.274,0.053695,supercritical,Ar,C7440371,argon,150.86,48.9805,13.41,0.07457121551081282,1.6999999999999997,10.370045222078174,0.00065161872
256.46,509.56,20611.0,4.8519e-05,0.27329,2.7456,91.641,15.119,35.438,555.44,-0.00061032,56.396,0.053798,supercritical,Ar,C7440371,argon,150.86,48.9805,13.41,0.07457121551081282,1.6999999999999997,10.403323771705066,0.00065063979
256.46,511.19,20642.0,4.8446e-05,0.26914,2.7457,91.61,15.123,35.42,556.37,-0.00096228,56.518,0.0539,supercritical,Ar,C7440371,argon,150.86,48.9805,13.41,0.07457121551081282,1.6999999999999997,10.436602321331959,0.0006496608600000001
256.46,512.82,20672.0,4.8374e-05,0.26501,2.7457,91.58,15.127,35.402,557.29,-0.0013115,56.64,0.054002,supercritical,Ar,C7440371,argon,150.86,48.9805,13.41,0.07457121551081282,1.6999999999999997,10.469880870958852,0.0006486953400000001
256.46,514.45,20703.0,4.8302e-05,0.2609,2.7458,91.549,15.131,35.384,558.21,-0.0016581,56.762,0.054104,supercritical,Ar,C7440371,argon,150.86,48.9805,13.41,0.07457121551081282,1.6999999999999997,10.503159420585744,0.0006477298200000001
256.46,516.08,20734.0,4.8231e-05,0.25681,2.7459,91.519,15.135,35.367,559.14,-0.002002,56.883,0.054206,supercritical,Ar,C7440371,argon,150.86,48.9805,13.41,0.07457121551081282,1.6999999999999997,10.536437970212637,0.0006467777100000001
256.46,517.71,20764.0,4.816e-05,0.25273,2.746,91.489,15.139,35.349,560.05,-0.0023433,57.005,0.054307,supercritical,Ar,C7440371,argon,150.86,48.9805,13.41,0.07457121551081282,1.6999999999999997,10.56971651983953,0.0006458256
256.46,519.34,20794.0,4.809e-05,0.24867,2.7462,91.459,15.143,35.331,560.97,-0.002682,57.126,0.054409,supercritical,Ar,C7440371,argon,150.86,48.9805,13.41,0.07457121551081282,1.6999999999999997,10.602995069466422,0.0006448869000000001
256.46,520.97,20825.0,4.802e-05,0.24463,2.7463,91.429,15.147,35.314,561.89,-0.0030181,57.248,0.05451,supercritical,Ar,C7440371,argon,150.86,48.9805,13.41,0.07457121551081282,1.6999999999999997,10.636273619093313,0.0006439482
256.46,522.6,20855.0,4.7951e-05,0.24061,2.7465,91.399,15.151,35.296,562.8,-0.0033517,57.369,0.054611,supercritical,Ar,C7440371,argon,150.86,48.9805,13.41,0.07457121551081282,1.6999999999999997,10.669552168720205,0.0006430229100000001
256.46,524.23,20885.0,4.7882e-05,0.2366,2.7467,91.37,15.155,35.279,563.71,-0.0036828,57.49,0.054712,supercritical,Ar,C7440371,argon,150.86,48.9805,13.41,0.07457121551081282,1.6999999999999997,10.702830718347098,0.00064209762
256.46,525.86,20914.0,4.7814e-05,0.23261,2.747,91.34,15.159,35.261,564.62,-0.0040113,57.611,0.054813,supercritical,Ar,C7440371,argon,150.86,48.9805,13.41,0.07457121551081282,1.6999999999999997,10.73610926797399,0.00064118574
256.46,527.49,20944.0,4.7746e-05,0.22863,2.7472,91.311,15.162,35.244,565.53,-0.0043374,57.732,0.054914,supercritical,Ar,C7440371,argon,150.86,48.9805,13.41,0.07457121551081282,1.6999999999999997,10.769387817600883,0.00064027386
256.46,529.12,20974.0,4.7679e-05,0.22467,2.7475,91.281,15.166,35.227,566.44,-0.0046611,57.853,0.055014,supercritical,Ar,C7440371,argon,150.86,48.9805,13.41,0.07457121551081282,1.6999999999999997,10.802666367227774,0.00063937539
256.46,530.75,21003.0,4.7612e-05,0.22073,2.7477,91.252,15.17,35.21,567.34,-0.0049824,57.974,0.055114,supercritical,Ar,C7440371,argon,150.86,48.9805,13.41,0.07457121551081282,1.6999999999999997,10.835944916854666,0.00063847692
256.46,532.38,21033.0,4.7545e-05,0.2168,2.748,91.223,15.174,35.193,568.24,-0.0053012,58.095,0.055214,supercritical,Ar,C7440371,argon,150.86,48.9805,13.41,0.07457121551081282,1.6999999999999997,10.869223466481559,0.00063757845
256.46,534.01,21062.0,4.7479e-05,0.21289,2.7483,91.194,15.178,35.176,569.14,-0.0056177,58.216,0.055315,supercritical,Ar,C7440371,argon,150.86,48.9805,13.41,0.07457121551081282,1.6999999999999997,10.902502016108452,0.00063669339
256.46,535.64,21091.0,4.7414e-05,0.209,2.7487,91.165,15.182,35.159,570.04,-0.0059318,58.336,0.055414,supercritical,Ar,C7440371,argon,150.86,48.9805,13.41,0.07457121551081282,1.6999999999999997,10.935780565735344,0.00063582174
256.46,537.27,21120.0,4.7349e-05,0.20512,2.749,91.136,15.186,35.142,570.94,-0.0062437,58.457,0.055514,supercritical,Ar,C7440371,argon,150.86,48.9805,13.41,0.07457121551081282,1.6999999999999997,10.969059115362235,0.00063495009
256.46,538.9,21149.0,4.7284e-05,0.20125,2.7494,91.108,15.19,35.125,571.84,-0.0065532,58.577,0.055614,supercritical,Ar,C7440371,argon,150.86,48.9805,13.41,0.07457121551081282,1.6999999999999997,11.002337664989128,0.0006340784400000001
256.46,540.53,21178.0,4.722e-05,0.1974,2.7498,91.079,15.194,35.108,572.73,-0.0068604,58.697,0.055713,supercritical,Ar,C7440371,argon,150.86,48.9805,13.41,0.07457121551081282,1.6999999999999997,11.03561621461602,0.0006332202
256.46,542.16,21206.0,4.7156e-05,0.19357,2.7502,91.051,15.198,35.092,573.62,-0.0071655,58.818,0.055812,supercritical,Ar,C7440371,argon,150.86,48.9805,13.41,0.07457121551081282,1.6999999999999997,11.068894764242913,0.0006323619600000001
256.46,543.79,21235.0,4.7092e-05,0.18976,2.7506,91.022,15.202,35.075,574.51,-0.0074682,58.938,0.055911,supercritical,Ar,C7440371,argon,150.86,48.9805,13.41,0.07457121551081282,1.6999999999999997,11.102173313869805,0.0006315037200000001
256.46,545.42,21263.0,4.7029e-05,0.18595,2.751,90.994,15.206,35.059,575.4,-0.0077688,59.058,0.05601,supercritical,Ar,C7440371,argon,150.86,48.9805,13.41,0.07457121551081282,1.6999999999999997,11.135451863496696,0.0006306588900000001
256.46,547.05,21292.0,4.6967e-05,0.18217,2.7515,90.966,15.21,35.042,576.29,-0.0080672,59.178,0.056109,supercritical,Ar,C7440371,argon,150.86,48.9805,13.41,0.07457121551081282,1.6999999999999997,11.168730413123589,0.0006298274700000001
256.46,548.68,21320.0,4.6904e-05,0.1784,2.7519,90.938,15.214,35.026,577.17,-0.0083634,59.298,0.056208,supercritical,Ar,C7440371,argon,150.86,48.9805,13.41,0.07457121551081282,1.6999999999999997,11.202008962750481,0.00062898264
256.46,550.31,21348.0,4.6843e-05,0.17464,2.7524,90.91,15.218,35.01,578.06,-0.0086575,59.417,0.056306,supercritical,Ar,C7440371,argon,150.86,48.9805,13.41,0.07457121551081282,1.6999999999999997,11.235287512377374,0.00062816463
256.46,551.94,21376.0,4.6781e-05,0.1709,2.7529,90.882,15.222,34.993,578.94,-0.0089495,59.537,0.056405,supercritical,Ar,C7440371,argon,150.86,48.9805,13.41,0.07457121551081282,1.6999999999999997,11.268566062004268,0.00062733321
256.46,553.57,21404.0,4.672e-05,0.16717,2.7535,90.855,15.226,34.977,579.82,-0.0092393,59.657,0.056503,supercritical,Ar,C7440371,argon,150.86,48.9805,13.41,0.07457121551081282,1.6999999999999997,11.30184461163116,0.0006265152000000001
256.46,555.2,21432.0,4.6659e-05,0.16346,2.754,90.827,15.23,34.961,580.7,-0.0095271,59.776,0.056601,supercritical,Ar,C7440371,argon,150.86,48.9805,13.41,0.07457121551081282,1.6999999999999997,11.335123161258053,0.00062569719
256.46,556.83,21460.0,4.6599e-05,0.15976,2.7545,90.8,15.234,34.945,581.58,-0.0098129,59.896,0.056699,supercritical,Ar,C7440371,argon,150.86,48.9805,13.41,0.07457121551081282,1.6999999999999997,11.368401710884944,0.0006248925900000001
256.46,558.46,21487.0,4.6539e-05,0.15608,2.7551,90.772,15.238,34.929,582.45,-0.010097,60.015,0.056797,supercritical,Ar,C7440371,argon,150.86,48.9805,13.41,0.07457121551081282,1.6999999999999997,11.401680260511837,0.0006240879900000001
256.46,560.09,21515.0,4.648e-05,0.15241,2.7557,90.745,15.242,34.913,583.33,-0.010378,60.134,0.056895,supercritical,Ar,C7440371,argon,150.86,48.9805,13.41,0.07457121551081282,1.6999999999999997,11.43495881013873,0.0006232968000000001