Temperature (K),Pressure (bar),Density (mol/m3),Volume (m3/mol),Internal Energy (kJ/mol),Enthalpy (kJ/mol),Entropy (J/mol*K),Cv (J/mol*K),Cp (J/mol*K),Sound Spd. (m/s),Joule-Thomson (K/bar),Viscosity (uPa*s),Therm. Cond. (W/m*K),Phase,substance,substance_id,substance_name,Tc,Pc,rhoc,Vmc,Tr,Pr,Vmr
1294.0,3.0,27.889,0.035857,73.803,84.56,171.38,36.573,44.908,856.19,0.11126,48.624,0.13695,vapor,H2O,C7732185,water,647.0,220.64,17.9,0.0558659217877095,2.0,0.01359680928208847,0.6418402999999999
1294.0,10.348,96.24,0.010391,73.771,84.524,161.06,36.602,44.987,856.26,0.11111,48.654,0.13763,vapor,H2O,C7732185,water,647.0,220.64,17.9,0.0558659217877095,2.0,0.04689992748368384,0.18599889999999997
1294.0,17.697,164.65,0.0060736,73.739,84.487,156.57,36.63,45.065,856.32,0.11096,48.684,0.13832,vapor,H2O,C7732185,water,647.0,220.64,17.9,0.0558659217877095,2.0,0.08020757795503988,0.10871744
1294.0,25.045,233.11,0.0042898,73.706,84.45,153.66,36.659,45.144,856.39,0.11081,48.715,0.139,vapor,H2O,C7732185,water,647.0,220.64,17.9,0.0558659217877095,2.0,0.11351069615663525,0.07678742
1294.0,32.393,301.63,0.0033153,73.674,84.413,151.5,36.687,45.224,856.46,0.11065,48.746,0.13969,vapor,H2O,C7732185,water,647.0,220.64,17.9,0.0558659217877095,2.0,0.14681381435823063,0.05934387
1294.0,39.742,370.2,0.0027012,73.641,84.377,149.77,36.715,45.303,856.54,0.11048,48.778,0.14038,vapor,H2O,C7732185,water,647.0,220.64,17.9,0.0558659217877095,2.0,0.18012146482958666,0.048351479999999995
1294.0,47.09,438.83,0.0022788,73.609,84.34,148.33,36.744,45.383,856.61,0.11032,48.81,0.14108,vapor,H2O,C7732185,water,647.0,220.64,17.9,0.0558659217877095,2.0,0.21342458303118206,0.04079052
1294.0,54.438,507.51,0.0019704,73.576,84.303,147.1,36.772,45.462,856.69,0.11014,48.842,0.14178,vapor,H2O,C7732185,water,647.0,220.64,17.9,0.0558659217877095,2.0,0.2467277012327774,0.03527016
1294.0,61.787,576.25,0.0017353,73.544,84.266,146.03,36.801,45.542,856.77,0.10997,48.874,0.14248,vapor,H2O,C7732185,water,647.0,220.64,17.9,0.0558659217877095,2.0,0.28003535170413346,0.03106187
1294.0,69.135,645.05,0.0015503,73.512,84.229,145.07,36.829,45.622,856.86,0.10979,48.907,0.14318,vapor,H2O,C7732185,water,647.0,220.64,17.9,0.0558659217877095,2.0,0.31333846990572883,0.027750369999999996
1294.0,76.483,713.9,0.0014008,73.479,84.193,144.2,36.857,45.702,856.94,0.1096,48.941,0.14389,vapor,H2O,C7732185,water,647.0,220.64,17.9,0.0558659217877095,2.0,0.3466415881073242,0.025074319999999997
1294.0,83.832,782.8,0.0012775,73.447,84.156,143.41,36.885,45.783,857.03,0.10942,48.975,0.1446,vapor,H2O,C7732185,water,647.0,220.64,17.9,0.0558659217877095,2.0,0.3799492385786802,0.02286725
1294.0,91.18,851.75,0.001174,73.414,84.119,142.69,36.913,45.863,857.12,0.10922,49.009,0.14531,vapor,H2O,C7732185,water,647.0,220.64,17.9,0.0558659217877095,2.0,0.4132523567802756,0.021014599999999998
1294.0,98.528,920.76,0.0010861,73.381,84.082,142.02,36.942,45.944,857.21,0.10903,49.043,0.14602,vapor,H2O,C7732185,water,647.0,220.64,17.9,0.0558659217877095,2.0,0.446555474981871,0.019441189999999997
1294.0,105.88,989.83,0.0010103,73.349,84.045,141.4,36.97,46.024,857.31,0.10883,49.078,0.14674,vapor,H2O,C7732185,water,647.0,220.64,17.9,0.0558659217877095,2.0,0.47987672226250905,0.01808437
1294.0,113.23,1058.9,0.00094434,73.316,84.009,140.81,36.998,46.105,857.41,0.10863,49.113,0.14746,vapor,H2O,C7732185,water,647.0,220.64,17.9,0.0558659217877095,2.0,0.5131889050036259,0.016903685999999998
1294.0,120.57,1128.1,0.00088644,73.284,83.972,140.27,37.026,46.186,857.51,0.10842,49.148,0.14819,vapor,H2O,C7732185,water,647.0,220.64,17.9,0.0558659217877095,2.0,0.5464557650471356,0.015867276
1294.0,127.92,1197.3,0.00083519,73.251,83.935,139.75,37.054,46.267,857.62,0.10821,49.184,0.14891,vapor,H2O,C7732185,water,647.0,220.64,17.9,0.0558659217877095,2.0,0.5797679477882524,0.014949900999999998
1294.0,135.27,1266.6,0.00078951,73.218,83.898,139.26,37.082,46.348,857.73,0.108,49.22,0.14964,vapor,H2O,C7732185,water,647.0,220.64,17.9,0.0558659217877095,2.0,0.6130801305293692,0.014132229
1294.0,142.62,1335.9,0.00074854,73.186,83.861,138.8,37.11,46.43,857.84,0.10778,49.257,0.15038,vapor,H2O,C7732185,water,647.0,220.64,17.9,0.0558659217877095,2.0,0.646392313270486,0.013398865999999999
1294.0,149.97,1405.3,0.00071159,73.153,83.825,138.35,37.138,46.511,857.95,0.10756,49.294,0.15111,vapor,H2O,C7732185,water,647.0,220.64,17.9,0.0558659217877095,2.0,0.6797044960116027,0.012737460999999999
1294.0,157.32,1474.7,0.00067809,73.12,83.788,137.93,37.165,46.593,858.07,0.10733,49.331,0.15185,vapor,H2O,C7732185,water,647.0,220.64,17.9,0.0558659217877095,2.0,0.7130166787527193,0.012137811
1294.0,164.66,1544.2,0.00064758,73.088,83.751,137.53,37.193,46.674,858.2,0.10711,49.368,0.15259,vapor,H2O,C7732185,water,647.0,220.64,17.9,0.0558659217877095,2.0,0.7462835387962292,0.011591681999999999
1294.0,172.01,1613.7,0.00061968,73.055,83.714,137.14,37.221,46.756,858.33,0.10688,49.406,0.15333,vapor,H2O,C7732185,water,647.0,220.64,17.9,0.0558659217877095,2.0,0.7795957215373459,0.011092271999999999
1294.0,179.36,1683.3,0.00059407,73.022,83.678,136.76,37.249,46.838,858.46,0.10664,49.444,0.15408,vapor,H2O,C7732185,water,647.0,220.64,17.9,0.0558659217877095,2.0,0.8129079042784627,0.010633853
1294.0,186.71,1752.9,0.00057047,72.99,83.641,136.41,37.276,46.92,858.59,0.1064,49.482,0.15483,vapor,H2O,C7732185,water,647.0,220.64,17.9,0.0558659217877095,2.0,0.8462200870195795,0.010211412999999999
1294.0,194.06,1822.6,0.00054867,72.957,83.604,136.06,37.304,47.002,858.73,0.10616,49.521,0.15558,vapor,H2O,C7732185,water,647.0,220.64,17.9,0.0558659217877095,2.0,0.8795322697606962,0.009821192999999999
1294.0,201.41,1892.3,0.00052845,72.924,83.568,135.72,37.331,47.084,858.88,0.10592,49.56,0.15634,vapor,H2O,C7732185,water,647.0,220.64,17.9,0.0558659217877095,2.0,0.9128444525018129,0.009459254999999998
1294.0,208.75,1962.1,0.00050966,72.892,83.531,135.4,37.359,47.166,859.02,0.10567,49.599,0.15709,vapor,H2O,C7732185,water,647.0,220.64,17.9,0.0558659217877095,2.0,0.9461113125453228,0.009122914
1294.0,216.1,2031.9,0.00049215,72.859,83.494,135.09,37.386,47.248,859.18,0.10542,49.639,0.15785,vapor,H2O,C7732185,water,647.0,220.64,17.9,0.0558659217877095,2.0,0.9794234952864395,0.008809484999999999
1294.0,223.45,2101.7,0.0004758,72.826,83.458,134.79,37.414,47.33,859.33,0.10517,49.679,0.15862,vapor,H2O,C7732185,water,647.0,220.64,17.9,0.0558659217877095,2.0,1.0127356780275563,0.00851682
1294.0,223.45,2101.7,0.0004758,72.826,83.458,134.79,37.414,47.33,859.33,0.10517,49.679,0.15862,supercritical,H2O,C7732185,water,647.0,220.64,17.9,0.0558659217877095,2.0,1.0127356780275563,0.00851682
1294.0,230.8,2171.6,0.00046048,72.793,83.421,134.49,37.441,47.412,859.49,0.10491,49.719,0.15938,supercritical,H2O,C7732185,water,647.0,220.64,17.9,0.0558659217877095,2.0,1.0460478607686732,0.008242592
1294.0,238.15,2241.6,0.00044611,72.761,83.385,134.21,37.469,47.495,859.66,0.10465,49.759,0.16015,supercritical,H2O,C7732185,water,647.0,220.64,17.9,0.0558659217877095,2.0,1.0793600435097899,0.007985368999999999
1294.0,245.49,2311.6,0.00043261,72.728,83.348,133.93,37.496,47.577,859.83,0.10439,49.8,0.16092,supercritical,H2O,C7732185,water,647.0,220.64,17.9,0.0558659217877095,2.0,1.1126269035532996,0.007743719
1294.0,252.84,2381.6,0.00041989,72.695,83.312,133.66,37.523,47.66,860.0,0.10413,49.841,0.1617,supercritical,H2O,C7732185,water,647.0,220.64,17.9,0.0558659217877095,2.0,1.1459390862944163,0.007516031
1294.0,260.19,2451.7,0.00040789,72.662,83.275,133.4,37.55,47.742,860.18,0.10386,49.882,0.16247,supercritical,H2O,C7732185,water,647.0,220.64,17.9,0.0558659217877095,2.0,1.179251269035533,0.007301230999999999
1294.0,267.54,2521.8,0.00039655,72.63,83.239,133.14,37.577,47.824,860.37,0.10359,49.924,0.16325,supercritical,H2O,C7732185,water,647.0,220.64,17.9,0.0558659217877095,2.0,1.21256345177665,0.0070982449999999996
1294.0,274.89,2591.9,0.00038581,72.597,83.202,132.89,37.604,47.907,860.55,0.10331,49.966,0.16403,supercritical,H2O,C7732185,water,647.0,220.64,17.9,0.0558659217877095,2.0,1.2458756345177666,0.0069059989999999995
1294.0,282.24,2662.1,0.00037564,72.564,83.166,132.64,37.632,47.99,860.75,0.10304,50.008,0.16482,supercritical,H2O,C7732185,water,647.0,220.64,17.9,0.0558659217877095,2.0,1.2791878172588833,0.006723956
1294.0,289.58,2732.3,0.00036599,72.531,83.13,132.41,37.659,48.072,860.95,0.10276,50.05,0.1656,supercritical,H2O,C7732185,water,647.0,220.64,17.9,0.0558659217877095,2.0,1.312454677302393,0.006551220999999999
1294.0,296.93,2802.6,0.00035681,72.499,83.093,132.17,37.685,48.155,861.15,0.10248,50.093,0.16639,supercritical,H2O,C7732185,water,647.0,220.64,17.9,0.0558659217877095,2.0,1.34576686004351,0.006386899
1294.0,304.28,2872.9,0.00034808,72.466,83.057,131.94,37.712,48.237,861.36,0.10219,50.136,0.16718,supercritical,H2O,C7732185,water,647.0,220.64,17.9,0.0558659217877095,2.0,1.3790790427846265,0.006230632
1294.0,311.63,2943.2,0.00033976,72.433,83.021,131.72,37.739,48.32,861.57,0.10191,50.179,0.16797,supercritical,H2O,C7732185,water,647.0,220.64,17.9,0.0558659217877095,2.0,1.4123912255257434,0.006081703999999999
1294.0,318.98,3013.6,0.00033183,72.4,82.985,131.5,37.766,48.402,861.79,0.10162,50.222,0.16877,supercritical,H2O,C7732185,water,647.0,220.64,17.9,0.0558659217877095,2.0,1.4457034082668603,0.005939757
1294.0,326.33,3084.0,0.00032425,72.368,82.949,131.29,37.793,48.485,862.02,0.10133,50.266,0.16957,supercritical,H2O,C7732185,water,647.0,220.64,17.9,0.0558659217877095,2.0,1.4790155910079767,0.005804075
1294.0,333.67,3154.5,0.00031701,72.335,82.913,131.08,37.819,48.568,862.25,0.10103,50.309,0.17037,supercritical,H2O,C7732185,water,647.0,220.64,17.9,0.0558659217877095,2.0,1.5122824510514867,0.005674479
1294.0,341.02,3224.9,0.00031008,72.302,82.877,130.87,37.846,48.65,862.48,0.10074,50.353,0.17117,supercritical,H2O,C7732185,water,647.0,220.64,17.9,0.0558659217877095,2.0,1.5455946337926034,0.005550432
1294.0,348.37,3295.4,0.00030345,72.269,82.841,130.67,37.872,48.733,862.72,0.10044,50.398,0.17198,supercritical,H2O,C7732185,water,647.0,220.64,17.9,0.0558659217877095,2.0,1.5789068165337201,0.005431754999999999
1294.0,355.72,3366.0,0.00029709,72.237,82.805,130.47,37.899,48.815,862.97,0.10014,50.442,0.17279,supercritical,H2O,C7732185,water,647.0,220.64,17.9,0.0558659217877095,2.0,1.612218999274837,0.005317911
1294.0,363.07,3436.5,0.00029099,72.204,82.769,130.28,37.925,48.898,863.22,0.099835,50.487,0.1736,supercritical,H2O,C7732185,water,647.0,220.64,17.9,0.0558659217877095,2.0,1.6455311820159537,0.0052087209999999995
1294.0,370.42,3507.1,0.00028513,72.171,82.733,130.09,37.952,48.98,863.48,0.09953,50.532,0.17441,supercritical,H2O,C7732185,water,647.0,220.64,17.9,0.0558659217877095,2.0,1.6788433647570704,0.005103826999999999
1294.0,377.76,3577.7,0.00027951,72.138,82.697,129.9,37.978,49.063,863.74,0.099223,50.577,0.17522,supercritical,H2O,C7732185,water,647.0,220.64,17.9,0.0558659217877095,2.0,1.7121102248005802,0.005003229
1294.0,385.11,3648.4,0.00027409,72.106,82.661,129.71,38.004,49.145,864.01,0.098914,50.622,0.17604,supercritical,H2O,C7732185,water,647.0,220.64,17.9,0.0558659217877095,2.0,1.745422407541697,0.004906211
1294.0,392.46,3719.1,0.00026889,72.073,82.626,129.53,38.03,49.227,864.28,0.098603,50.668,0.17686,supercritical,H2O,C7732185,water,647.0,220.64,17.9,0.0558659217877095,2.0,1.7787345902828136,0.004813130999999999
1294.0,399.81,3789.8,0.00026387,72.04,82.59,129.35,38.057,49.309,864.56,0.09829,50.714,0.17768,supercritical,H2O,C7732185,water,647.0,220.64,17.9,0.0558659217877095,2.0,1.8120467730239305,0.004723272999999999
1294.0,407.16,3860.5,0.00025904,72.008,82.554,129.18,38.083,49.392,864.85,0.097975,50.76,0.1785,supercritical,H2O,C7732185,water,647.0,220.64,17.9,0.0558659217877095,2.0,1.8453589557650474,0.004636815999999999
1294.0,414.51,3931.2,0.00025437,71.975,82.519,129.0,38.109,49.474,865.14,0.097658,50.806,0.17933,supercritical,H2O,C7732185,water,647.0,220.64,17.9,0.0558659217877095,2.0,1.8786711385061639,0.004553223
1294.0,421.86,4002.0,0.00024988,71.942,82.483,128.83,38.135,49.556,865.43,0.09734,50.852,0.18016,supercritical,H2O,C7732185,water,647.0,220.64,17.9,0.0558659217877095,2.0,1.9119833212472808,0.004472852
1294.0,429.2,4072.8,0.00024553,71.91,82.448,128.67,38.16,49.638,865.74,0.097019,50.899,0.18099,supercritical,H2O,C7732185,water,647.0,220.64,17.9,0.0558659217877095,2.0,1.9452501812907905,0.0043949869999999995
1294.0,436.55,4143.6,0.00024134,71.877,82.413,128.5,38.186,49.72,866.04,0.096697,50.946,0.18182,supercritical,H2O,C7732185,water,647.0,220.64,17.9,0.0558659217877095,2.0,1.9785623640319074,0.004319986
1294.0,443.9,4214.4,0.00023728,71.844,82.377,128.34,38.212,49.802,866.36,0.096374,50.993,0.18265,supercritical,H2O,C7732185,water,647.0,220.64,17.9,0.0558659217877095,2.0,2.011874546773024,0.004247312
1294.0,451.25,4285.2,0.00023336,71.812,82.342,128.18,38.238,49.883,866.68,0.096048,51.04,0.18349,supercritical,H2O,C7732185,water,647.0,220.64,17.9,0.0558659217877095,2.0,2.045186729514141,0.004177144
1294.0,458.6,4356.1,0.00022957,71.779,82.307,128.02,38.263,49.965,867.0,0.095721,51.087,0.18432,supercritical,H2O,C7732185,water,647.0,220.64,17.9,0.0558659217877095,2.0,2.0784989122552577,0.004109303
1294.0,465.95,4426.9,0.00022589,71.747,82.272,127.86,38.289,50.046,867.34,0.095393,51.135,0.18516,supercritical,H2O,C7732185,water,647.0,220.64,17.9,0.0558659217877095,2.0,2.111811094996374,0.004043430999999999
1294.0,473.29,4497.8,0.00022233,71.714,82.237,127.71,38.314,50.128,867.67,0.095063,51.183,0.186,supercritical,H2O,C7732185,water,647.0,220.64,17.9,0.0558659217877095,2.0,2.145077955039884,0.003979707
1294.0,480.64,4568.7,0.00021888,71.681,82.202,127.55,38.34,50.209,868.02,0.094731,51.231,0.18685,supercritical,H2O,C7732185,water,647.0,220.64,17.9,0.0558659217877095,2.0,2.1783901377810007,0.003917952
1294.0,487.99,4639.6,0.00021554,71.649,82.167,127.4,38.365,50.29,868.37,0.094398,51.279,0.18769,supercritical,H2O,C7732185,water,647.0,220.64,17.9,0.0558659217877095,2.0,2.2117023205221176,0.003858166
1294.0,495.34,4710.5,0.00021229,71.616,82.132,127.26,38.391,50.372,868.72,0.094064,51.327,0.18854,supercritical,H2O,C7732185,water,647.0,220.64,17.9,0.0558659217877095,2.0,2.245014503263234,0.0037999909999999995
1294.0,502.69,4781.4,0.00020914,71.584,82.097,127.11,38.416,50.453,869.08,0.093729,51.375,0.18939,supercritical,H2O,C7732185,water,647.0,220.64,17.9,0.0558659217877095,2.0,2.278326686004351,0.0037436059999999996
1294.0,510.04,4852.4,0.00020609,71.551,82.063,126.96,38.441,50.533,869.45,0.093392,51.424,0.19024,supercritical,H2O,C7732185,water,647.0,220.64,17.9,0.0558659217877095,2.0,2.311638868745468,0.003689011
1294.0,517.38,4923.3,0.00020312,71.519,82.028,126.82,38.466,50.614,869.82,0.093054,51.473,0.19109,supercritical,H2O,C7732185,water,647.0,220.64,17.9,0.0558659217877095,2.0,2.344905728788978,0.0036358479999999997
1294.0,524.73,4994.2,0.00020023,71.487,81.993,126.68,38.491,50.695,870.2,0.092715,51.521,0.19194,supercritical,H2O,C7732185,water,647.0,220.64,17.9,0.0558659217877095,2.0,2.3782179115300943,0.003584117
1294.0,532.08,5065.2,0.00019743,71.454,81.959,126.54,38.516,50.775,870.59,0.092375,51.57,0.1928,supercritical,H2O,C7732185,water,647.0,220.64,17.9,0.0558659217877095,2.0,2.4115300942712112,0.003533997
1294.0,539.43,5136.1,0.0001947,71.422,81.924,126.4,38.541,50.856,870.98,0.092033,51.62,0.19365,supercritical,H2O,C7732185,water,647.0,220.64,17.9,0.0558659217877095,2.0,2.4448422770123277,0.0034851299999999995
1294.0,546.78,5207.1,0.00019205,71.389,81.89,126.27,38.566,50.936,871.38,0.091691,51.669,0.19451,supercritical,H2O,C7732185,water,647.0,220.64,17.9,0.0558659217877095,2.0,2.4781544597534446,0.0034376949999999997
1294.0,554.13,5278.0,0.00018946,71.357,81.856,126.13,38.591,51.016,871.78,0.091348,51.718,0.19537,supercritical,H2O,C7732185,water,647.0,220.64,17.9,0.0558659217877095,2.0,2.5114666424945615,0.0033913339999999998
1294.0,561.47,5349.0,0.00018695,71.325,81.822,126.0,38.615,51.096,872.19,0.091003,51.768,0.19623,supercritical,H2O,C7732185,water,647.0,220.64,17.9,0.0558659217877095,2.0,2.5447335025380715,0.0033464049999999998
1294.0,568.82,5419.9,0.0001845,71.292,81.787,125.87,38.64,51.175,872.6,0.090658,51.818,0.19709,supercritical,H2O,C7732185,water,647.0,220.64,17.9,0.0558659217877095,2.0,2.578045685279188,0.00330255
1294.0,576.17,5490.9,0.00018212,71.26,81.753,125.74,38.664,51.255,873.03,0.090312,51.867,0.19796,supercritical,H2O,C7732185,water,647.0,220.64,17.9,0.0558659217877095,2.0,2.6113578680203045,0.003259948
1294.0,583.52,5561.8,0.0001798,71.228,81.719,125.61,38.689,51.334,873.45,0.089965,51.917,0.19882,supercritical,H2O,C7732185,water,647.0,220.64,17.9,0.0558659217877095,2.0,2.6446700507614214,0.00321842
1294.0,590.87,5632.8,0.00017753,71.196,81.686,125.48,38.713,51.414,873.89,0.089617,51.968,0.19969,supercritical,H2O,C7732185,water,647.0,220.64,17.9,0.0558659217877095,2.0,2.6779822335025383,0.0031777869999999996
1294.0,598.22,5703.7,0.00017533,71.163,81.652,125.35,38.738,51.493,874.33,0.089269,52.018,0.20056,supercritical,H2O,C7732185,water,647.0,220.64,17.9,0.0558659217877095,2.0,2.711294416243655,0.0031384069999999997
1294.0,605.56,5774.6,0.00017317,71.131,81.618,125.23,38.762,51.572,874.77,0.08892,52.068,0.20143,supercritical,H2O,C7732185,water,647.0,220.64,17.9,0.0558659217877095,2.0,2.7445612762871647,0.003099743
1294.0,612.91,5845.5,0.00017107,71.099,81.584,125.1,38.786,51.65,875.22,0.08857,52.119,0.2023,supercritical,H2O,C7732185,water,647.0,220.64,17.9,0.0558659217877095,2.0,2.777873459028281,0.0030621529999999998
1294.0,620.26,5916.4,0.00016902,71.067,81.551,124.98,38.81,51.729,875.68,0.088219,52.169,0.20317,supercritical,H2O,C7732185,water,647.0,220.64,17.9,0.0558659217877095,2.0,2.811185641769398,0.003025458
1294.0,627.61,5987.3,0.00016702,71.035,81.517,124.86,38.834,51.807,876.15,0.087868,52.22,0.20404,supercritical,H2O,C7732185,water,647.0,220.64,17.9,0.0558659217877095,2.0,2.844497824510515,0.002989658
1294.0,634.96,6058.2,0.00016507,71.003,81.484,124.74,38.858,51.885,876.62,0.087517,52.271,0.20492,supercritical,H2O,C7732185,water,647.0,220.64,17.9,0.0558659217877095,2.0,2.877810007251632,0.0029547529999999996
1294.0,642.31,6129.1,0.00016316,70.971,81.45,124.62,38.882,51.963,877.09,0.087164,52.322,0.20579,supercritical,H2O,C7732185,water,647.0,220.64,17.9,0.0558659217877095,2.0,2.9111221899927484,0.002920564
1294.0,649.65,6199.9,0.00016129,70.939,81.417,124.5,38.906,52.041,877.57,0.086812,52.373,0.20667,supercritical,H2O,C7732185,water,647.0,220.64,17.9,0.0558659217877095,2.0,2.9443890500362584,0.0028870909999999996
1294.0,657.0,6270.8,0.00015947,70.907,81.384,124.39,38.93,52.119,878.06,0.086459,52.424,0.20755,supercritical,H2O,C7732185,water,647.0,220.64,17.9,0.0558659217877095,2.0,2.9777012327773753,0.0028545129999999995
1294.0,664.35,6341.6,0.00015769,70.875,81.351,124.27,38.953,52.196,878.56,0.086105,52.475,0.20843,supercritical,H2O,C7732185,water,647.0,220.64,17.9,0.0558659217877095,2.0,3.0110134155184918,0.002822651
1294.0,671.7,6412.4,0.00015595,70.843,81.318,124.16,38.977,52.273,879.06,0.085751,52.526,0.20931,supercritical,H2O,C7732185,water,647.0,220.64,17.9,0.0558659217877095,2.0,3.0443255982596087,0.0027915049999999997
1294.0,679.05,6483.2,0.00015425,70.811,81.285,124.04,39.001,52.35,879.56,0.085397,52.578,0.21019,supercritical,H2O,C7732185,water,647.0,220.64,17.9,0.0558659217877095,2.0,3.077637781000725,0.002761075
1294.0,686.4,6553.9,0.00015258,70.779,81.252,123.93,39.024,52.427,880.07,0.085043,52.629,0.21107,supercritical,H2O,C7732185,water,647.0,220.64,17.9,0.0558659217877095,2.0,3.110949963741842,0.002731182
1294.0,693.74,6624.7,0.00015095,70.747,81.22,123.82,39.047,52.503,880.59,0.084688,52.681,0.21195,supercritical,H2O,C7732185,water,647.0,220.64,17.9,0.0558659217877095,2.0,3.144216823785352,0.002702005
1294.0,701.09,6695.4,0.00014936,70.716,81.187,123.71,39.071,52.579,881.12,0.084333,52.733,0.21284,supercritical,H2O,C7732185,water,647.0,220.64,17.9,0.0558659217877095,2.0,3.177529006526469,0.002673544