Temperature (K),Pressure (bar),Density (mol/m3),Volume (m3/mol),Internal Energy (kJ/mol),Enthalpy (kJ/mol),Entropy (J/mol*K),Cv (J/mol*K),Cp (J/mol*K),Sound Spd. (m/s),Joule-Thomson (K/bar),Viscosity (uPa*s),Therm. Cond. (W/m*K),Phase,substance,substance_id,substance_name,Tc,Pc,rhoc,Vmc,Tr,Pr,Vmr
185.5,390.02,26131.0,3.8268e-05,-0.22485,1.2677,126.78,25.214,51.059,613.07,-0.0076106,66.786,0.086644,supercritical,O2,C7782447,oxygen,154.58,50.43,13.6,0.07352941176470588,1.2,7.733888558397779,0.0005204448
185.5,391.39,26154.0,3.8235e-05,-0.22822,1.2683,126.76,25.218,51.018,614.09,-0.007815,66.917,0.086785,supercritical,O2,C7782447,oxygen,154.58,50.43,13.6,0.07352941176470588,1.2,7.761054927622447,0.000519996
185.5,392.75,26177.0,3.8201e-05,-0.23158,1.2688,126.73,25.223,50.977,615.11,-0.0080177,67.048,0.086926,supercritical,O2,C7782447,oxygen,154.58,50.43,13.6,0.07352941176470588,1.2,7.788023002181242,0.0005195336
185.5,394.12,26200.0,3.8168e-05,-0.23492,1.2694,126.71,25.227,50.936,616.13,-0.0082188,67.179,0.087067,supercritical,O2,C7782447,oxygen,154.58,50.43,13.6,0.07352941176470588,1.2,7.81518937140591,0.0005190847999999999
185.5,395.49,26222.0,3.8135e-05,-0.23825,1.2699,126.68,25.232,50.896,617.14,-0.0084181,67.309,0.087207,supercritical,O2,C7782447,oxygen,154.58,50.43,13.6,0.07352941176470588,1.2,7.842355740630577,0.0005186359999999999
185.5,396.85,26245.0,3.8103e-05,-0.24156,1.2705,126.66,25.237,50.856,618.15,-0.0086158,67.44,0.087347,supercritical,O2,C7782447,oxygen,154.58,50.43,13.6,0.07352941176470588,1.2,7.869323815189372,0.0005182008
185.5,398.21,26267.0,3.807e-05,-0.24486,1.2711,126.63,25.241,50.816,619.16,-0.0088118,67.57,0.087487,supercritical,O2,C7782447,oxygen,154.58,50.43,13.6,0.07352941176470588,1.2,7.8962918897481655,0.000517752
185.5,399.58,26290.0,3.8038e-05,-0.24815,1.2718,126.61,25.246,50.777,620.16,-0.0090063,67.7,0.087626,supercritical,O2,C7782447,oxygen,154.58,50.43,13.6,0.07352941176470588,1.2,7.9234582589728335,0.0005173167999999999
185.5,400.94,26312.0,3.8005e-05,-0.25142,1.2724,126.58,25.25,50.738,621.17,-0.0091991,67.83,0.087766,supercritical,O2,C7782447,oxygen,154.58,50.43,13.6,0.07352941176470588,1.2,7.950426333531628,0.000516868
185.5,402.31,26334.0,3.7973e-05,-0.25468,1.273,126.56,25.255,50.699,622.16,-0.0093904,67.959,0.087905,supercritical,O2,C7782447,oxygen,154.58,50.43,13.6,0.07352941176470588,1.2,7.977592702756296,0.0005164328
185.5,403.68,26356.0,3.7942e-05,-0.25792,1.2737,126.53,25.259,50.661,623.16,-0.0095801,68.089,0.088044,supercritical,O2,C7782447,oxygen,154.58,50.43,13.6,0.07352941176470588,1.2,8.004759071980963,0.0005160112
185.5,405.04,26378.0,3.791e-05,-0.26115,1.2744,126.51,25.264,50.623,624.15,-0.0097683,68.218,0.088182,supercritical,O2,C7782447,oxygen,154.58,50.43,13.6,0.07352941176470588,1.2,8.031727146539758,0.000515576
185.5,406.4,26400.0,3.7879e-05,-0.26437,1.275,126.48,25.268,50.585,625.14,-0.009955,68.347,0.088321,supercritical,O2,C7782447,oxygen,154.58,50.43,13.6,0.07352941176470588,1.2,8.058695221098551,0.0005151544
185.5,407.77,26422.0,3.7847e-05,-0.26757,1.2757,126.46,25.273,50.547,626.13,-0.01014,68.476,0.088459,supercritical,O2,C7782447,oxygen,154.58,50.43,13.6,0.07352941176470588,1.2,8.08586159032322,0.0005147191999999999
185.5,409.13,26444.0,3.7816e-05,-0.27076,1.2764,126.44,25.277,50.51,627.11,-0.010324,68.605,0.088596,supercritical,O2,C7782447,oxygen,154.58,50.43,13.6,0.07352941176470588,1.2,8.112829664882014,0.0005142975999999999
185.5,410.5,26465.0,3.7785e-05,-0.27393,1.2772,126.41,25.282,50.473,628.1,-0.010506,68.734,0.088734,supercritical,O2,C7782447,oxygen,154.58,50.43,13.6,0.07352941176470588,1.2,8.139996034106682,0.0005138759999999999
185.5,411.87,26487.0,3.7755e-05,-0.27709,1.2779,126.39,25.286,50.437,629.07,-0.010687,68.862,0.088871,supercritical,O2,C7782447,oxygen,154.58,50.43,13.6,0.07352941176470588,1.2,8.16716240333135,0.000513468
185.5,413.23,26508.0,3.7724e-05,-0.28024,1.2786,126.36,25.291,50.4,630.05,-0.010866,68.991,0.089009,supercritical,O2,C7782447,oxygen,154.58,50.43,13.6,0.07352941176470588,1.2,8.194130477890145,0.0005130464
185.5,414.6,26530.0,3.7694e-05,-0.28338,1.2794,126.34,25.295,50.364,631.02,-0.011044,69.119,0.089146,supercritical,O2,C7782447,oxygen,154.58,50.43,13.6,0.07352941176470588,1.2,8.221296847114813,0.0005126384
185.5,415.96,26551.0,3.7663e-05,-0.2865,1.2801,126.32,25.3,50.328,631.99,-0.011221,69.247,0.089282,supercritical,O2,C7782447,oxygen,154.58,50.43,13.6,0.07352941176470588,1.2,8.248264921673607,0.0005122168
185.5,417.32,26572.0,3.7633e-05,-0.28961,1.2809,126.29,25.305,50.293,632.96,-0.011396,69.374,0.089419,supercritical,O2,C7782447,oxygen,154.58,50.43,13.6,0.07352941176470588,1.2,8.2752329962324,0.0005118087999999999
185.5,418.69,26593.0,3.7603e-05,-0.29271,1.2817,126.27,25.309,50.258,633.93,-0.01157,69.502,0.089555,supercritical,O2,C7782447,oxygen,154.58,50.43,13.6,0.07352941176470588,1.2,8.302399365457068,0.0005114008
185.5,420.06,26614.0,3.7574e-05,-0.29579,1.2825,126.25,25.314,50.223,634.89,-0.011742,69.63,0.089691,supercritical,O2,C7782447,oxygen,154.58,50.43,13.6,0.07352941176470588,1.2,8.329565734681736,0.0005110064000000001
185.5,421.42,26635.0,3.7544e-05,-0.29887,1.2833,126.22,25.318,50.188,635.85,-0.011913,69.757,0.089827,supercritical,O2,C7782447,oxygen,154.58,50.43,13.6,0.07352941176470588,1.2,8.356533809240531,0.0005105983999999999
185.5,422.79,26656.0,3.7515e-05,-0.30193,1.2841,126.2,25.323,50.153,636.8,-0.012083,69.884,0.089962,supercritical,O2,C7782447,oxygen,154.58,50.43,13.6,0.07352941176470588,1.2,8.3837001784652,0.000510204
185.5,424.15,26677.0,3.7486e-05,-0.30497,1.285,126.18,25.327,50.119,637.76,-0.012251,70.011,0.090098,supercritical,O2,C7782447,oxygen,154.58,50.43,13.6,0.07352941176470588,1.2,8.410668253023994,0.0005098095999999999
185.5,425.51,26698.0,3.7456e-05,-0.30801,1.2858,126.15,25.332,50.085,638.71,-0.012419,70.138,0.090233,supercritical,O2,C7782447,oxygen,154.58,50.43,13.6,0.07352941176470588,1.2,8.437636327582787,0.0005094016
185.5,426.88,26718.0,3.7428e-05,-0.31103,1.2867,126.13,25.336,50.051,639.66,-0.012585,70.265,0.090367,supercritical,O2,C7782447,oxygen,154.58,50.43,13.6,0.07352941176470588,1.2,8.464802696807455,0.0005090208
185.5,428.25,26739.0,3.7399e-05,-0.31405,1.2875,126.11,25.341,50.018,640.61,-0.012749,70.391,0.090502,supercritical,O2,C7782447,oxygen,154.58,50.43,13.6,0.07352941176470588,1.2,8.491969066032123,0.0005086264
185.5,429.61,26759.0,3.737e-05,-0.31704,1.2884,126.09,25.345,49.985,641.55,-0.012913,70.517,0.090637,supercritical,O2,C7782447,oxygen,154.58,50.43,13.6,0.07352941176470588,1.2,8.518937140590918,0.0005082320000000001
185.5,430.98,26780.0,3.7342e-05,-0.32003,1.2893,126.06,25.35,49.952,642.49,-0.013075,70.644,0.090771,supercritical,O2,C7782447,oxygen,154.58,50.43,13.6,0.07352941176470588,1.2,8.546103509815586,0.0005078512
185.5,432.34,26800.0,3.7313e-05,-0.32301,1.2902,126.04,25.354,49.919,643.43,-0.013236,70.77,0.090905,supercritical,O2,C7782447,oxygen,154.58,50.43,13.6,0.07352941176470588,1.2,8.57307158437438,0.0005074567999999999
185.5,433.7,26820.0,3.7285e-05,-0.32597,1.2911,126.02,25.359,49.886,644.37,-0.013396,70.896,0.091038,supercritical,O2,C7782447,oxygen,154.58,50.43,13.6,0.07352941176470588,1.2,8.600039658933175,0.000507076
185.5,435.07,26840.0,3.7257e-05,-0.32893,1.292,126.0,25.363,49.854,645.3,-0.013554,71.021,0.091172,supercritical,O2,C7782447,oxygen,154.58,50.43,13.6,0.07352941176470588,1.2,8.627206028157843,0.0005066952
185.5,436.44,26861.0,3.7229e-05,-0.33187,1.2929,125.97,25.368,49.822,646.23,-0.013712,71.147,0.091305,supercritical,O2,C7782447,oxygen,154.58,50.43,13.6,0.07352941176470588,1.2,8.654372397382511,0.0005063143999999999
185.5,437.8,26881.0,3.7202e-05,-0.3348,1.2939,125.95,25.372,49.79,647.16,-0.013868,71.273,0.091438,supercritical,O2,C7782447,oxygen,154.58,50.43,13.6,0.07352941176470588,1.2,8.681340471941304,0.0005059472
185.5,439.17,26901.0,3.7174e-05,-0.33772,1.2948,125.93,25.377,49.759,648.09,-0.014023,71.398,0.091571,supercritical,O2,C7782447,oxygen,154.58,50.43,13.6,0.07352941176470588,1.2,8.708506841165972,0.0005055664
185.5,440.53,26920.0,3.7147e-05,-0.34062,1.2958,125.91,25.381,49.727,649.01,-0.014177,71.523,0.091704,supercritical,O2,C7782447,oxygen,154.58,50.43,13.6,0.07352941176470588,1.2,8.735474915724767,0.0005051992
185.5,441.89,26940.0,3.7119e-05,-0.34352,1.2968,125.88,25.386,49.696,649.93,-0.01433,71.648,0.091836,supercritical,O2,C7782447,oxygen,154.58,50.43,13.6,0.07352941176470588,1.2,8.762442990283562,0.0005048184
185.5,443.26,26960.0,3.7092e-05,-0.34641,1.2977,125.86,25.39,49.665,650.85,-0.014482,71.773,0.091969,supercritical,O2,C7782447,oxygen,154.58,50.43,13.6,0.07352941176470588,1.2,8.78960935950823,0.0005044512
185.5,444.62,26980.0,3.7065e-05,-0.34928,1.2987,125.84,25.395,49.634,651.77,-0.014632,71.898,0.092101,supercritical,O2,C7782447,oxygen,154.58,50.43,13.6,0.07352941176470588,1.2,8.816577434067023,0.0005040839999999999
185.5,445.99,26999.0,3.7038e-05,-0.35214,1.2997,125.82,25.399,49.604,652.68,-0.014782,72.023,0.092233,supercritical,O2,C7782447,oxygen,154.58,50.43,13.6,0.07352941176470588,1.2,8.84374380329169,0.0005037168
185.5,447.36,27019.0,3.7011e-05,-0.355,1.3007,125.8,25.404,49.573,653.6,-0.01493,72.147,0.092364,supercritical,O2,C7782447,oxygen,154.58,50.43,13.6,0.07352941176470588,1.2,8.870910172516359,0.0005033496
185.5,448.72,27038.0,3.6985e-05,-0.35784,1.3017,125.77,25.408,49.543,654.5,-0.015077,72.271,0.092496,supercritical,O2,C7782447,oxygen,154.58,50.43,13.6,0.07352941176470588,1.2,8.897878247075154,0.000502996
185.5,450.08,27058.0,3.6958e-05,-0.36067,1.3028,125.75,25.413,49.513,655.41,-0.015224,72.396,0.092627,supercritical,O2,C7782447,oxygen,154.58,50.43,13.6,0.07352941176470588,1.2,8.924846321633948,0.0005026288
185.5,451.45,27077.0,3.6932e-05,-0.36349,1.3038,125.73,25.417,49.484,656.32,-0.015369,72.52,0.092758,supercritical,O2,C7782447,oxygen,154.58,50.43,13.6,0.07352941176470588,1.2,8.952012690858616,0.0005022751999999999
185.5,452.81,27096.0,3.6906e-05,-0.3663,1.3048,125.71,25.422,49.454,657.22,-0.015513,72.644,0.092889,supercritical,O2,C7782447,oxygen,154.58,50.43,13.6,0.07352941176470588,1.2,8.978980765417411,0.0005019216
185.5,454.18,27115.0,3.688e-05,-0.3691,1.3059,125.69,25.426,49.425,658.12,-0.015657,72.767,0.093019,supercritical,O2,C7782447,oxygen,154.58,50.43,13.6,0.07352941176470588,1.2,9.00614713464208,0.000501568
185.5,455.55,27134.0,3.6854e-05,-0.37189,1.307,125.67,25.431,49.396,659.02,-0.015799,72.891,0.09315,supercritical,O2,C7782447,oxygen,154.58,50.43,13.6,0.07352941176470588,1.2,9.033313503866747,0.0005012144000000001
185.5,456.91,27153.0,3.6828e-05,-0.37467,1.308,125.65,25.435,49.367,659.92,-0.01594,73.015,0.09328,supercritical,O2,C7782447,oxygen,154.58,50.43,13.6,0.07352941176470588,1.2,9.06028157842554,0.0005008608
185.5,458.27,27172.0,3.6802e-05,-0.37744,1.3091,125.62,25.439,49.338,660.81,-0.01608,73.138,0.09341,supercritical,O2,C7782447,oxygen,154.58,50.43,13.6,0.07352941176470588,1.2,9.087249652984335,0.0005005071999999999
185.5,459.64,27191.0,3.6776e-05,-0.3802,1.3102,125.6,25.444,49.31,661.7,-0.016219,73.261,0.09354,supercritical,O2,C7782447,oxygen,154.58,50.43,13.6,0.07352941176470588,1.2,9.114416022209003,0.0005001536
185.5,461.0,27210.0,3.6751e-05,-0.38295,1.3113,125.58,25.448,49.281,662.59,-0.016358,73.385,0.093669,supercritical,O2,C7782447,oxygen,154.58,50.43,13.6,0.07352941176470588,1.2,9.141384096767798,0.0004998136
185.5,462.37,27229.0,3.6726e-05,-0.38569,1.3124,125.56,25.453,49.253,663.48,-0.016495,73.508,0.093799,supercritical,O2,C7782447,oxygen,154.58,50.43,13.6,0.07352941176470588,1.2,9.168550465992466,0.0004994735999999999
185.5,463.74,27248.0,3.67e-05,-0.38842,1.3135,125.54,25.457,49.225,664.37,-0.016631,73.63,0.093928,supercritical,O2,C7782447,oxygen,154.58,50.43,13.6,0.07352941176470588,1.2,9.195716835217134,0.0004991199999999999
185.5,465.1,27266.0,3.6675e-05,-0.39114,1.3146,125.52,25.462,49.198,665.25,-0.016767,73.753,0.094057,supercritical,O2,C7782447,oxygen,154.58,50.43,13.6,0.07352941176470588,1.2,9.222684909775927,0.00049878
185.5,466.46,27285.0,3.665e-05,-0.39385,1.3158,125.5,25.466,49.17,666.13,-0.016901,73.876,0.094186,supercritical,O2,C7782447,oxygen,154.58,50.43,13.6,0.07352941176470588,1.2,9.249652984334721,0.0004984400000000001
185.5,467.83,27303.0,3.6625e-05,-0.39655,1.3169,125.48,25.47,49.143,667.01,-0.017035,73.998,0.094314,supercritical,O2,C7782447,oxygen,154.58,50.43,13.6,0.07352941176470588,1.2,9.27681935355939,0.0004981
185.5,469.19,27322.0,3.6601e-05,-0.39924,1.318,125.46,25.475,49.115,667.89,-0.017167,74.121,0.094443,supercritical,O2,C7782447,oxygen,154.58,50.43,13.6,0.07352941176470588,1.2,9.303787428118184,0.0004977736
185.5,470.56,27340.0,3.6576e-05,-0.40192,1.3192,125.44,25.479,49.088,668.76,-0.017299,74.243,0.094571,supercritical,O2,C7782447,oxygen,154.58,50.43,13.6,0.07352941176470588,1.2,9.330953797342852,0.0004974335999999999
185.5,471.93,27359.0,3.6551e-05,-0.4046,1.3204,125.42,25.484,49.062,669.63,-0.01743,74.365,0.094699,supercritical,O2,C7782447,oxygen,154.58,50.43,13.6,0.07352941176470588,1.2,9.35812016656752,0.0004970936
185.5,473.29,27377.0,3.6527e-05,-0.40726,1.3215,125.39,25.488,49.035,670.5,-0.01756,74.487,0.094827,supercritical,O2,C7782447,oxygen,154.58,50.43,13.6,0.07352941176470588,1.2,9.385088241126315,0.0004967671999999999
185.5,474.65,27395.0,3.6503e-05,-0.40991,1.3227,125.37,25.493,49.008,671.37,-0.017689,74.609,0.094954,supercritical,O2,C7782447,oxygen,154.58,50.43,13.6,0.07352941176470588,1.2,9.412056315685108,0.0004964408
185.5,476.02,27413.0,3.6479e-05,-0.41256,1.3239,125.35,25.497,48.982,672.24,-0.017817,74.731,0.095082,supercritical,O2,C7782447,oxygen,154.58,50.43,13.6,0.07352941176470588,1.2,9.439222684909776,0.0004961144
185.5,477.38,27431.0,3.6454e-05,-0.41519,1.3251,125.33,25.501,48.956,673.1,-0.017944,74.853,0.095209,supercritical,O2,C7782447,oxygen,154.58,50.43,13.6,0.07352941176470588,1.2,9.46619075946857,0.0004957744
185.5,478.75,27450.0,3.643e-05,-0.41782,1.3263,125.31,25.506,48.93,673.97,-0.018071,74.974,0.095336,supercritical,O2,C7782447,oxygen,154.58,50.43,13.6,0.07352941176470588,1.2,9.493357128693239,0.000495448
185.5,480.12,27468.0,3.6407e-05,-0.42043,1.3275,125.29,25.51,48.904,674.83,-0.018196,75.096,0.095463,supercritical,O2,C7782447,oxygen,154.58,50.43,13.6,0.07352941176470588,1.2,9.520523497917907,0.0004951351999999999
185.5,481.48,27485.0,3.6383e-05,-0.42304,1.3287,125.27,25.514,48.878,675.69,-0.018321,75.217,0.09559,supercritical,O2,C7782447,oxygen,154.58,50.43,13.6,0.07352941176470588,1.2,9.547491572476702,0.0004948088
185.5,482.85,27503.0,3.6359e-05,-0.42564,1.3299,125.25,25.519,48.853,676.54,-0.018445,75.338,0.095716,supercritical,O2,C7782447,oxygen,154.58,50.43,13.6,0.07352941176470588,1.2,9.57465794170137,0.0004944824
185.5,484.21,27521.0,3.6336e-05,-0.42823,1.3312,125.23,25.523,48.828,677.4,-0.018568,75.459,0.095843,supercritical,O2,C7782447,oxygen,154.58,50.43,13.6,0.07352941176470588,1.2,9.601626016260163,0.0004941696
185.5,485.57,27539.0,3.6312e-05,-0.43081,1.3324,125.21,25.528,48.802,678.25,-0.018691,75.58,0.095969,supercritical,O2,C7782447,oxygen,154.58,50.43,13.6,0.07352941176470588,1.2,9.628594090818957,0.0004938432
185.5,486.94,27557.0,3.6289e-05,-0.43338,1.3337,125.19,25.532,48.777,679.1,-0.018812,75.701,0.096095,supercritical,O2,C7782447,oxygen,154.58,50.43,13.6,0.07352941176470588,1.2,9.655760460043625,0.0004935304
185.5,488.31,27574.0,3.6266e-05,-0.43595,1.3349,125.17,25.536,48.752,679.95,-0.018933,75.822,0.096221,supercritical,O2,C7782447,oxygen,154.58,50.43,13.6,0.07352941176470588,1.2,9.682926829268293,0.0004932176
185.5,489.67,27592.0,3.6243e-05,-0.4385,1.3362,125.15,25.541,48.728,680.8,-0.019053,75.943,0.096346,supercritical,O2,C7782447,oxygen,154.58,50.43,13.6,0.07352941176470588,1.2,9.709894903827088,0.0004929048
185.5,491.04,27609.0,3.622e-05,-0.44105,1.3375,125.13,25.545,48.703,681.64,-0.019172,76.063,0.096472,supercritical,O2,C7782447,oxygen,154.58,50.43,13.6,0.07352941176470588,1.2,9.737061273051756,0.000492592
185.5,492.4,27627.0,3.6197e-05,-0.44358,1.3387,125.11,25.549,48.679,682.49,-0.01929,76.183,0.096597,supercritical,O2,C7782447,oxygen,154.58,50.43,13.6,0.07352941176470588,1.2,9.764029347610549,0.0004922791999999999
185.5,493.76,27644.0,3.6174e-05,-0.44611,1.34,125.09,25.554,48.654,683.33,-0.019408,76.304,0.096722,supercritical,O2,C7782447,oxygen,154.58,50.43,13.6,0.07352941176470588,1.2,9.790997422169344,0.0004919664000000001
185.5,495.13,27662.0,3.6151e-05,-0.44863,1.3413,125.07,25.558,48.63,684.17,-0.019525,76.424,0.096847,supercritical,O2,C7782447,oxygen,154.58,50.43,13.6,0.07352941176470588,1.2,9.818163791394012,0.0004916536
185.5,496.5,27679.0,3.6129e-05,-0.45115,1.3426,125.05,25.562,48.606,685.01,-0.019641,76.544,0.096972,supercritical,O2,C7782447,oxygen,154.58,50.43,13.6,0.07352941176470588,1.2,9.84533016061868,0.0004913544
185.5,497.86,27696.0,3.6106e-05,-0.45365,1.3439,125.03,25.567,48.583,685.84,-0.019756,76.664,0.097096,supercritical,O2,C7782447,oxygen,154.58,50.43,13.6,0.07352941176470588,1.2,9.872298235177475,0.0004910416
185.5,499.23,27713.0,3.6084e-05,-0.45615,1.3452,125.01,25.571,48.559,686.68,-0.019871,76.784,0.09722,supercritical,O2,C7782447,oxygen,154.58,50.43,13.6,0.07352941176470588,1.2,9.899464604402143,0.0004907424
185.5,500.59,27731.0,3.6061e-05,-0.45863,1.3466,125.0,25.575,48.535,687.51,-0.019985,76.904,0.097345,supercritical,O2,C7782447,oxygen,154.58,50.43,13.6,0.07352941176470588,1.2,9.926432678960936,0.0004904296
185.5,501.95,27748.0,3.6039e-05,-0.46111,1.3479,124.98,25.58,48.512,688.34,-0.020098,77.023,0.097469,supercritical,O2,C7782447,oxygen,154.58,50.43,13.6,0.07352941176470588,1.2,9.95340075351973,0.0004901304
185.5,503.32,27765.0,3.6017e-05,-0.46358,1.3492,124.96,25.584,48.489,689.17,-0.020211,77.143,0.097592,supercritical,O2,C7782447,oxygen,154.58,50.43,13.6,0.07352941176470588,1.2,9.980567122744398,0.0004898312
185.5,504.69,27782.0,3.5995e-05,-0.46605,1.3506,124.94,25.588,48.466,689.99,-0.020322,77.262,0.097716,supercritical,O2,C7782447,oxygen,154.58,50.43,13.6,0.07352941176470588,1.2,10.007733491969066,0.000489532
185.5,506.05,27799.0,3.5973e-05,-0.4685,1.3519,124.92,25.592,48.443,690.82,-0.020433,77.382,0.09784,supercritical,O2,C7782447,oxygen,154.58,50.43,13.6,0.07352941176470588,1.2,10.034701566527861,0.0004892328
185.5,507.42,27816.0,3.5951e-05,-0.47095,1.3533,124.9,25.597,48.42,691.64,-0.020544,77.501,0.097963,supercritical,O2,C7782447,oxygen,154.58,50.43,13.6,0.07352941176470588,1.2,10.06186793575253,0.0004889336
185.5,508.78,27832.0,3.5929e-05,-0.47339,1.3546,124.88,25.601,48.397,692.46,-0.020653,77.62,0.098086,supercritical,O2,C7782447,oxygen,154.58,50.43,13.6,0.07352941176470588,1.2,10.088836010311322,0.0004886344
185.5,510.14,27849.0,3.5908e-05,-0.47582,1.356,124.86,25.605,48.375,693.28,-0.020762,77.739,0.098209,supercritical,O2,C7782447,oxygen,154.58,50.43,13.6,0.07352941176470588,1.2,10.115804084870117,0.0004883488
185.5,511.51,27866.0,3.5886e-05,-0.47824,1.3574,124.84,25.61,48.352,694.1,-0.020871,77.858,0.098332,supercritical,O2,C7782447,oxygen,154.58,50.43,13.6,0.07352941176470588,1.2,10.142970454094785,0.0004880496
185.5,512.88,27883.0,3.5865e-05,-0.48066,1.3587,124.82,25.614,48.33,694.92,-0.020978,77.977,0.098454,supercritical,O2,C7782447,oxygen,154.58,50.43,13.6,0.07352941176470588,1.2,10.170136823319453,0.000487764
185.5,514.24,27899.0,3.5843e-05,-0.48307,1.3601,124.8,25.618,48.308,695.73,-0.021085,78.095,0.098577,supercritical,O2,C7782447,oxygen,154.58,50.43,13.6,0.07352941176470588,1.2,10.197104897878248,0.0004874648
185.5,515.61,27916.0,3.5822e-05,-0.48547,1.3615,124.79,25.622,48.286,696.55,-0.021192,78.214,0.098699,supercritical,O2,C7782447,oxygen,154.58,50.43,13.6,0.07352941176470588,1.2,10.224271267102916,0.0004871791999999999
185.5,516.97,27932.0,3.5801e-05,-0.48786,1.3629,124.77,25.627,48.264,697.36,-0.021297,78.333,0.098821,supercritical,O2,C7782447,oxygen,154.58,50.43,13.6,0.07352941176470588,1.2,10.25123934166171,0.00048689359999999995