Temperature (K),Pressure (bar),Density (mol/m3),Volume (m3/mol),Internal Energy (kJ/mol),Enthalpy (kJ/mol),Entropy (J/mol*K),Cv (J/mol*K),Cp (J/mol*K),Sound Spd. (m/s),Joule-Thomson (K/bar),Viscosity (uPa*s),Therm. Cond. (W/m*K),Phase,substance,substance_id,substance_name,Tc,Pc,rhoc,Vmc,Tr,Pr,Vmr
200.95,645.28,27852.0,3.5904e-05,-0.081763,2.235,126.9,25.431,46.162,728.38,-0.025868,78.573,0.10059,supercritical,O2,C7782447,oxygen,154.58,50.43,13.6,0.07352941176470588,1.3,12.795558199484434,0.0004882944
200.95,646.64,27867.0,3.5885e-05,-0.083818,2.2367,126.88,25.434,46.148,729.09,-0.025947,78.676,0.1007,supercritical,O2,C7782447,oxygen,154.58,50.43,13.6,0.07352941176470588,1.3,12.822526274043229,0.00048803599999999996
200.95,648.01,27881.0,3.5866e-05,-0.085866,2.2383,126.87,25.438,46.133,729.81,-0.026025,78.779,0.10081,supercritical,O2,C7782447,oxygen,154.58,50.43,13.6,0.07352941176470588,1.3,12.849692643267897,0.0004877776
200.95,649.38,27896.0,3.5848e-05,-0.08791,2.24,126.85,25.441,46.119,730.52,-0.026103,78.882,0.10092,supercritical,O2,C7782447,oxygen,154.58,50.43,13.6,0.07352941176470588,1.3,12.876859012492565,0.0004875328
200.95,650.74,27910.0,3.5829e-05,-0.089948,2.2416,126.84,25.445,46.106,731.23,-0.02618,78.985,0.10103,supercritical,O2,C7782447,oxygen,154.58,50.43,13.6,0.07352941176470588,1.3,12.903827087051358,0.00048727439999999997
200.95,652.11,27925.0,3.5811e-05,-0.091981,2.2433,126.82,25.448,46.092,731.93,-0.026258,79.088,0.10114,supercritical,O2,C7782447,oxygen,154.58,50.43,13.6,0.07352941176470588,1.3,12.930993456276026,0.0004870296
200.95,653.47,27939.0,3.5792e-05,-0.094008,2.2449,126.8,25.452,46.078,732.64,-0.026334,79.191,0.10124,supercritical,O2,C7782447,oxygen,154.58,50.43,13.6,0.07352941176470588,1.3,12.95796153083482,0.00048677119999999995
200.95,654.84,27953.0,3.5774e-05,-0.09603,2.2466,126.79,25.455,46.064,733.35,-0.026411,79.293,0.10135,supercritical,O2,C7782447,oxygen,154.58,50.43,13.6,0.07352941176470588,1.3,12.985127900059489,0.0004865264
200.95,656.2,27968.0,3.5756e-05,-0.098047,2.2482,126.77,25.459,46.05,734.05,-0.026487,79.396,0.10146,supercritical,O2,C7782447,oxygen,154.58,50.43,13.6,0.07352941176470588,1.3,13.012095974618283,0.0004862816
200.95,657.57,27982.0,3.5737e-05,-0.10006,2.2499,126.76,25.462,46.037,734.75,-0.026562,79.499,0.10157,supercritical,O2,C7782447,oxygen,154.58,50.43,13.6,0.07352941176470588,1.3,13.039262343842951,0.0004860232
200.95,658.93,27996.0,3.5719e-05,-0.10207,2.2516,126.74,25.465,46.023,735.46,-0.026637,79.601,0.10168,supercritical,O2,C7782447,oxygen,154.58,50.43,13.6,0.07352941176470588,1.3,13.066230418401744,0.0004857784
200.95,660.29,28011.0,3.5701e-05,-0.10407,2.2532,126.72,25.469,46.01,736.16,-0.026712,79.704,0.10179,supercritical,O2,C7782447,oxygen,154.58,50.43,13.6,0.07352941176470588,1.3,13.09319849296054,0.0004855336
200.95,661.66,28025.0,3.5683e-05,-0.10606,2.2549,126.71,25.472,45.996,736.86,-0.026786,79.806,0.10189,supercritical,O2,C7782447,oxygen,154.58,50.43,13.6,0.07352941176470588,1.3,13.120364862185207,0.00048528879999999995
200.95,663.02,28039.0,3.5665e-05,-0.10805,2.2566,126.69,25.476,45.983,737.56,-0.02686,79.908,0.102,supercritical,O2,C7782447,oxygen,154.58,50.43,13.6,0.07352941176470588,1.3,13.147332936744002,0.00048504399999999996
200.95,664.39,28053.0,3.5647e-05,-0.11004,2.2583,126.68,25.479,45.97,738.26,-0.026934,80.011,0.10211,supercritical,O2,C7782447,oxygen,154.58,50.43,13.6,0.07352941176470588,1.3,13.17449930596867,0.00048479919999999996
200.95,665.75,28067.0,3.5629e-05,-0.11202,2.26,126.66,25.483,45.956,738.96,-0.027007,80.113,0.10222,supercritical,O2,C7782447,oxygen,154.58,50.43,13.6,0.07352941176470588,1.3,13.201467380527465,0.00048455439999999997
200.95,667.12,28081.0,3.5611e-05,-0.114,2.2617,126.64,25.486,45.943,739.65,-0.02708,80.215,0.10232,supercritical,O2,C7782447,oxygen,154.58,50.43,13.6,0.07352941176470588,1.3,13.228633749752133,0.00048430960000000003
200.95,668.49,28095.0,3.5593e-05,-0.11597,2.2634,126.63,25.49,45.93,740.35,-0.027153,80.318,0.10243,supercritical,O2,C7782447,oxygen,154.58,50.43,13.6,0.07352941176470588,1.3,13.2558001189768,0.00048406480000000003
200.95,669.85,28109.0,3.5575e-05,-0.11793,2.2651,126.61,25.493,45.917,741.04,-0.027225,80.42,0.10254,supercritical,O2,C7782447,oxygen,154.58,50.43,13.6,0.07352941176470588,1.3,13.282768193535594,0.00048381999999999993
200.95,671.22,28123.0,3.5558e-05,-0.1199,2.2668,126.6,25.496,45.904,741.73,-0.027297,80.522,0.10264,supercritical,O2,C7782447,oxygen,154.58,50.43,13.6,0.07352941176470588,1.3,13.309934562760262,0.0004835888
200.95,672.58,28137.0,3.554e-05,-0.12185,2.2685,126.58,25.5,45.891,742.43,-0.027368,80.624,0.10275,supercritical,O2,C7782447,oxygen,154.58,50.43,13.6,0.07352941176470588,1.3,13.336902637319056,0.000483344
200.95,673.95,28151.0,3.5523e-05,-0.1238,2.2702,126.57,25.503,45.878,743.12,-0.027439,80.726,0.10286,supercritical,O2,C7782447,oxygen,154.58,50.43,13.6,0.07352941176470588,1.3,13.364069006543724,0.00048311279999999995
200.95,675.31,28165.0,3.5505e-05,-0.12575,2.2719,126.55,25.507,45.865,743.81,-0.02751,80.828,0.10297,supercritical,O2,C7782447,oxygen,154.58,50.43,13.6,0.07352941176470588,1.3,13.391037081102517,0.00048286799999999996
200.95,676.67,28179.0,3.5488e-05,-0.12769,2.2737,126.53,25.51,45.852,744.5,-0.027581,80.93,0.10307,supercritical,O2,C7782447,oxygen,154.58,50.43,13.6,0.07352941176470588,1.3,13.418005155661312,0.00048263680000000005
200.95,678.04,28193.0,3.547e-05,-0.12963,2.2754,126.52,25.514,45.84,745.19,-0.027651,81.031,0.10318,supercritical,O2,C7782447,oxygen,154.58,50.43,13.6,0.07352941176470588,1.3,13.44517152488598,0.00048239199999999994
200.95,679.4,28206.0,3.5453e-05,-0.13156,2.2771,126.5,25.517,45.827,745.87,-0.02772,81.133,0.10328,supercritical,O2,C7782447,oxygen,154.58,50.43,13.6,0.07352941176470588,1.3,13.472139599444775,0.0004821608
200.95,680.77,28220.0,3.5436e-05,-0.13349,2.2789,126.49,25.52,45.814,746.56,-0.02779,81.235,0.10339,supercritical,O2,C7782447,oxygen,154.58,50.43,13.6,0.07352941176470588,1.3,13.499305968669443,0.00048192959999999996
200.95,682.13,28234.0,3.5418e-05,-0.13541,2.2806,126.47,25.524,45.802,747.25,-0.027859,81.336,0.1035,supercritical,O2,C7782447,oxygen,154.58,50.43,13.6,0.07352941176470588,1.3,13.526274043228238,0.00048168479999999997
200.95,683.5,28248.0,3.5401e-05,-0.13733,2.2823,126.46,25.527,45.789,747.93,-0.027928,81.438,0.1036,supercritical,O2,C7782447,oxygen,154.58,50.43,13.6,0.07352941176470588,1.3,13.553440412452906,0.0004814536
200.95,684.87,28261.0,3.5384e-05,-0.13924,2.2841,126.44,25.53,45.777,748.61,-0.027996,81.54,0.10371,supercritical,O2,C7782447,oxygen,154.58,50.43,13.6,0.07352941176470588,1.3,13.580606781677574,0.0004812224
200.95,686.23,28275.0,3.5367e-05,-0.14115,2.2858,126.43,25.534,45.765,749.3,-0.028064,81.641,0.10381,supercritical,O2,C7782447,oxygen,154.58,50.43,13.6,0.07352941176470588,1.3,13.607574856236369,0.0004809912
200.95,687.6,28289.0,3.535e-05,-0.14305,2.2876,126.41,25.537,45.752,749.98,-0.028132,81.743,0.10392,supercritical,O2,C7782447,oxygen,154.58,50.43,13.6,0.07352941176470588,1.3,13.634741225461037,0.00048075999999999994
200.95,688.96,28302.0,3.5333e-05,-0.14495,2.2894,126.4,25.541,45.74,750.66,-0.028199,81.844,0.10403,supercritical,O2,C7782447,oxygen,154.58,50.43,13.6,0.07352941176470588,1.3,13.66170930001983,0.00048052880000000003
200.95,690.33,28316.0,3.5316e-05,-0.14684,2.2911,126.38,25.544,45.728,751.34,-0.028266,81.945,0.10413,supercritical,O2,C7782447,oxygen,154.58,50.43,13.6,0.07352941176470588,1.3,13.688875669244498,0.00048029759999999996
200.95,691.69,28329.0,3.5299e-05,-0.14873,2.2929,126.37,25.547,45.715,752.01,-0.028333,82.047,0.10424,supercritical,O2,C7782447,oxygen,154.58,50.43,13.6,0.07352941176470588,1.3,13.715843743803292,0.0004800664
200.95,693.05,28343.0,3.5283e-05,-0.15062,2.2947,126.35,25.551,45.703,752.69,-0.028399,82.148,0.10434,supercritical,O2,C7782447,oxygen,154.58,50.43,13.6,0.07352941176470588,1.3,13.742811818362085,0.0004798488
200.95,694.42,28356.0,3.5266e-05,-0.1525,2.2964,126.34,25.554,45.691,753.37,-0.028465,82.249,0.10445,supercritical,O2,C7782447,oxygen,154.58,50.43,13.6,0.07352941176470588,1.3,13.769978187586753,0.00047961759999999993
200.95,695.78,28369.0,3.5249e-05,-0.15437,2.2982,126.32,25.557,45.679,754.04,-0.028531,82.35,0.10455,supercritical,O2,C7782447,oxygen,154.58,50.43,13.6,0.07352941176470588,1.3,13.796946262145548,0.0004793864
200.95,697.15,28383.0,3.5232e-05,-0.15624,2.3,126.31,25.561,45.667,754.72,-0.028597,82.451,0.10466,supercritical,O2,C7782447,oxygen,154.58,50.43,13.6,0.07352941176470588,1.3,13.824112631370216,0.00047915519999999995
200.95,698.51,28396.0,3.5216e-05,-0.15811,2.3018,126.29,25.564,45.655,755.39,-0.028662,82.553,0.10476,supercritical,O2,C7782447,oxygen,154.58,50.43,13.6,0.07352941176470588,1.3,13.85108070592901,0.0004789376
200.95,699.88,28410.0,3.5199e-05,-0.15997,2.3036,126.28,25.567,45.644,756.07,-0.028727,82.654,0.10487,supercritical,O2,C7782447,oxygen,154.58,50.43,13.6,0.07352941176470588,1.3,13.878247075153679,0.0004787064
200.95,701.25,28423.0,3.5183e-05,-0.16183,2.3054,126.26,25.57,45.632,756.74,-0.028791,82.755,0.10497,supercritical,O2,C7782447,oxygen,154.58,50.43,13.6,0.07352941176470588,1.3,13.905413444378347,0.00047848879999999995
200.95,702.61,28436.0,3.5166e-05,-0.16368,2.3071,126.25,25.574,45.62,757.41,-0.028855,82.855,0.10508,supercritical,O2,C7782447,oxygen,154.58,50.43,13.6,0.07352941176470588,1.3,13.932381518937142,0.0004782576
200.95,703.98,28449.0,3.515e-05,-0.16553,2.3089,126.23,25.577,45.608,758.08,-0.028919,82.956,0.10518,supercritical,O2,C7782447,oxygen,154.58,50.43,13.6,0.07352941176470588,1.3,13.95954788816181,0.00047804
200.95,705.34,28463.0,3.5134e-05,-0.16737,2.3108,126.22,25.58,45.597,758.75,-0.028983,83.057,0.10528,supercritical,O2,C7782447,oxygen,154.58,50.43,13.6,0.07352941176470588,1.3,13.986515962720604,0.00047782239999999995
200.95,706.71,28476.0,3.5117e-05,-0.16921,2.3126,126.2,25.584,45.585,759.42,-0.029046,83.158,0.10539,supercritical,O2,C7782447,oxygen,154.58,50.43,13.6,0.07352941176470588,1.3,14.013682331945272,0.00047759120000000004
200.95,708.07,28489.0,3.5101e-05,-0.17105,2.3144,126.19,25.587,45.573,760.08,-0.029109,83.259,0.10549,supercritical,O2,C7782447,oxygen,154.58,50.43,13.6,0.07352941176470588,1.3,14.040650406504065,0.0004773736
200.95,709.43,28502.0,3.5085e-05,-0.17288,2.3162,126.17,25.59,45.562,760.75,-0.029172,83.359,0.1056,supercritical,O2,C7782447,oxygen,154.58,50.43,13.6,0.07352941176470588,1.3,14.067618481062858,0.000477156
200.95,710.8,28515.0,3.5069e-05,-0.17471,2.318,126.16,25.594,45.551,761.41,-0.029234,83.46,0.1057,supercritical,O2,C7782447,oxygen,154.58,50.43,13.6,0.07352941176470588,1.3,14.094784850287526,0.00047693839999999997
200.95,712.16,28528.0,3.5053e-05,-0.17653,2.3198,126.14,25.597,45.539,762.08,-0.029296,83.561,0.1058,supercritical,O2,C7782447,oxygen,154.58,50.43,13.6,0.07352941176470588,1.3,14.121752924846321,0.0004767208
200.95,713.53,28541.0,3.5037e-05,-0.17835,2.3216,126.13,25.6,45.528,762.74,-0.029358,83.661,0.10591,supercritical,O2,C7782447,oxygen,154.58,50.43,13.6,0.07352941176470588,1.3,14.14891929407099,0.00047650319999999993
200.95,714.89,28554.0,3.5021e-05,-0.18016,2.3235,126.11,25.603,45.516,763.41,-0.02942,83.762,0.10601,supercritical,O2,C7782447,oxygen,154.58,50.43,13.6,0.07352941176470588,1.3,14.175887368629784,0.0004762856
200.95,716.26,28567.0,3.5005e-05,-0.18197,2.3253,126.1,25.607,45.505,764.07,-0.029481,83.862,0.10612,supercritical,O2,C7782447,oxygen,154.58,50.43,13.6,0.07352941176470588,1.3,14.203053737854452,0.000476068
200.95,717.62,28580.0,3.4989e-05,-0.18378,2.3271,126.08,25.61,45.494,764.73,-0.029542,83.963,0.10622,supercritical,O2,C7782447,oxygen,154.58,50.43,13.6,0.07352941176470588,1.3,14.230021812413247,0.00047585039999999997
200.95,718.99,28593.0,3.4973e-05,-0.18558,2.329,126.07,25.613,45.483,765.39,-0.029603,84.063,0.10632,supercritical,O2,C7782447,oxygen,154.58,50.43,13.6,0.07352941176470588,1.3,14.257188181637915,0.0004756328
200.95,720.36,28606.0,3.4957e-05,-0.18737,2.3308,126.05,25.616,45.472,766.05,-0.029663,84.163,0.10643,supercritical,O2,C7782447,oxygen,154.58,50.43,13.6,0.07352941176470588,1.3,14.284354550862583,0.00047541519999999993
200.95,721.72,28619.0,3.4942e-05,-0.18917,2.3326,126.04,25.62,45.461,766.71,-0.029723,84.263,0.10653,supercritical,O2,C7782447,oxygen,154.58,50.43,13.6,0.07352941176470588,1.3,14.311322625421377,0.0004752112
200.95,723.09,28632.0,3.4926e-05,-0.19095,2.3345,126.02,25.623,45.45,767.36,-0.029783,84.364,0.10663,supercritical,O2,C7782447,oxygen,154.58,50.43,13.6,0.07352941176470588,1.3,14.338488994646045,0.00047499359999999993
200.95,724.45,28645.0,3.491e-05,-0.19274,2.3363,126.01,25.626,45.439,768.02,-0.029843,84.464,0.10673,supercritical,O2,C7782447,oxygen,154.58,50.43,13.6,0.07352941176470588,1.3,14.36545706920484,0.00047477600000000005
200.95,725.82,28658.0,3.4895e-05,-0.19452,2.3382,126.0,25.629,45.428,768.68,-0.029902,84.564,0.10684,supercritical,O2,C7782447,oxygen,154.58,50.43,13.6,0.07352941176470588,1.3,14.392623438429508,0.00047457199999999993
200.95,727.18,28670.0,3.4879e-05,-0.19629,2.34,125.98,25.632,45.417,769.33,-0.029961,84.664,0.10694,supercritical,O2,C7782447,oxygen,154.58,50.43,13.6,0.07352941176470588,1.3,14.4195915129883,0.00047435440000000005
200.95,728.54,28683.0,3.4864e-05,-0.19807,2.3419,125.97,25.636,45.406,769.98,-0.03002,84.764,0.10704,supercritical,O2,C7782447,oxygen,154.58,50.43,13.6,0.07352941176470588,1.3,14.446559587547094,0.0004741503999999999
200.95,729.91,28696.0,3.4848e-05,-0.19983,2.3438,125.95,25.639,45.395,770.64,-0.030078,84.864,0.10714,supercritical,O2,C7782447,oxygen,154.58,50.43,13.6,0.07352941176470588,1.3,14.473725956771762,0.00047393280000000004
200.95,731.27,28709.0,3.4833e-05,-0.2016,2.3456,125.94,25.642,45.384,771.29,-0.030136,84.964,0.10725,supercritical,O2,C7782447,oxygen,154.58,50.43,13.6,0.07352941176470588,1.3,14.500694031330557,0.0004737287999999999
200.95,732.64,28721.0,3.4817e-05,-0.20336,2.3475,125.92,25.645,45.374,771.94,-0.030194,85.064,0.10735,supercritical,O2,C7782447,oxygen,154.58,50.43,13.6,0.07352941176470588,1.3,14.527860400555225,0.00047351120000000004
200.95,734.0,28734.0,3.4802e-05,-0.20511,2.3494,125.91,25.649,45.363,772.59,-0.030252,85.164,0.10745,supercritical,O2,C7782447,oxygen,154.58,50.43,13.6,0.07352941176470588,1.3,14.55482847511402,0.00047330720000000003
200.95,735.37,28747.0,3.4787e-05,-0.20686,2.3512,125.89,25.652,45.352,773.24,-0.030309,85.264,0.10755,supercritical,O2,C7782447,oxygen,154.58,50.43,13.6,0.07352941176470588,1.3,14.581994844338688,0.00047310319999999996
200.95,736.74,28759.0,3.4771e-05,-0.20861,2.3531,125.88,25.655,45.342,773.89,-0.030366,85.364,0.10766,supercritical,O2,C7782447,oxygen,154.58,50.43,13.6,0.07352941176470588,1.3,14.609161213563356,0.0004728856
200.95,738.1,28772.0,3.4756e-05,-0.21036,2.355,125.87,25.658,45.331,774.54,-0.030423,85.463,0.10776,supercritical,O2,C7782447,oxygen,154.58,50.43,13.6,0.07352941176470588,1.3,14.63612928812215,0.00047268159999999996
200.95,739.47,28784.0,3.4741e-05,-0.2121,2.3569,125.85,25.661,45.321,775.19,-0.03048,85.563,0.10786,supercritical,O2,C7782447,oxygen,154.58,50.43,13.6,0.07352941176470588,1.3,14.663295657346819,0.00047247759999999994
200.95,740.83,28797.0,3.4726e-05,-0.21383,2.3588,125.84,25.664,45.31,775.83,-0.030536,85.663,0.10796,supercritical,O2,C7782447,oxygen,154.58,50.43,13.6,0.07352941176470588,1.3,14.690263731905613,0.0004722736
200.95,742.2,28809.0,3.4711e-05,-0.21556,2.3607,125.82,25.668,45.3,776.48,-0.030592,85.762,0.10806,supercritical,O2,C7782447,oxygen,154.58,50.43,13.6,0.07352941176470588,1.3,14.717430101130281,0.00047206959999999997
200.95,743.56,28822.0,3.4696e-05,-0.21729,2.3626,125.81,25.671,45.289,777.12,-0.030648,85.862,0.10817,supercritical,O2,C7782447,oxygen,154.58,50.43,13.6,0.07352941176470588,1.3,14.744398175689073,0.0004718656
200.95,744.92,28834.0,3.4681e-05,-0.21901,2.3645,125.8,25.674,45.279,777.77,-0.030704,85.961,0.10827,supercritical,O2,C7782447,oxygen,154.58,50.43,13.6,0.07352941176470588,1.3,14.771366250247867,0.0004716616
200.95,746.29,28847.0,3.4666e-05,-0.22073,2.3664,125.78,25.677,45.269,778.41,-0.030759,86.061,0.10837,supercritical,O2,C7782447,oxygen,154.58,50.43,13.6,0.07352941176470588,1.3,14.798532619472535,0.00047145760000000004
200.95,747.65,28859.0,3.4651e-05,-0.22245,2.3683,125.77,25.68,45.259,779.05,-0.030814,86.16,0.10847,supercritical,O2,C7782447,oxygen,154.58,50.43,13.6,0.07352941176470588,1.3,14.82550069403133,0.00047125359999999997
200.95,749.02,28871.0,3.4636e-05,-0.22416,2.3702,125.75,25.683,45.248,779.69,-0.030869,86.26,0.10857,supercritical,O2,C7782447,oxygen,154.58,50.43,13.6,0.07352941176470588,1.3,14.852667063255998,0.00047104959999999996
200.95,750.38,28884.0,3.4621e-05,-0.22587,2.3721,125.74,25.686,45.238,780.33,-0.030924,86.359,0.10867,supercritical,O2,C7782447,oxygen,154.58,50.43,13.6,0.07352941176470588,1.3,14.879635137814793,0.0004708456
200.95,751.75,28896.0,3.4607e-05,-0.22758,2.374,125.73,25.69,45.228,780.97,-0.030978,86.458,0.10877,supercritical,O2,C7782447,oxygen,154.58,50.43,13.6,0.07352941176470588,1.3,14.90680150703946,0.0004706552
200.95,753.12,28908.0,3.4592e-05,-0.22928,2.3759,125.71,25.693,45.218,781.61,-0.031032,86.558,0.10888,supercritical,O2,C7782447,oxygen,154.58,50.43,13.6,0.07352941176470588,1.3,14.933967876264129,0.00047045119999999995
200.95,754.48,28921.0,3.4577e-05,-0.23097,2.3778,125.7,25.696,45.208,782.25,-0.031086,86.657,0.10898,supercritical,O2,C7782447,oxygen,154.58,50.43,13.6,0.07352941176470588,1.3,14.960935950822924,0.00047024719999999993
200.95,755.85,28933.0,3.4563e-05,-0.23267,2.3797,125.68,25.699,45.198,782.89,-0.03114,86.756,0.10908,supercritical,O2,C7782447,oxygen,154.58,50.43,13.6,0.07352941176470588,1.3,14.988102320047592,0.0004700568
200.95,757.21,28945.0,3.4548e-05,-0.23436,2.3817,125.67,25.702,45.188,783.52,-0.031193,86.855,0.10918,supercritical,O2,C7782447,oxygen,154.58,50.43,13.6,0.07352941176470588,1.3,15.015070394606386,0.0004698528
200.95,758.58,28957.0,3.4533e-05,-0.23604,2.3836,125.66,25.705,45.178,784.16,-0.031247,86.954,0.10928,supercritical,O2,C7782447,oxygen,154.58,50.43,13.6,0.07352941176470588,1.3,15.042236763831054,0.00046964880000000003
200.95,759.94,28970.0,3.4519e-05,-0.23772,2.3855,125.64,25.708,45.168,784.79,-0.0313,87.053,0.10938,supercritical,O2,C7782447,oxygen,154.58,50.43,13.6,0.07352941176470588,1.3,15.06920483838985,0.0004694584
200.95,761.3,28982.0,3.4504e-05,-0.2394,2.3874,125.63,25.711,45.158,785.43,-0.031352,87.152,0.10948,supercritical,O2,C7782447,oxygen,154.58,50.43,13.6,0.07352941176470588,1.3,15.09617291294864,0.0004692544
200.95,762.67,28994.0,3.449e-05,-0.24108,2.3894,125.61,25.715,45.149,786.06,-0.031405,87.251,0.10958,supercritical,O2,C7782447,oxygen,154.58,50.43,13.6,0.07352941176470588,1.3,15.123339282173308,0.00046906399999999994
200.95,764.03,29006.0,3.4476e-05,-0.24275,2.3913,125.6,25.718,45.139,786.69,-0.031457,87.35,0.10968,supercritical,O2,C7782447,oxygen,154.58,50.43,13.6,0.07352941176470588,1.3,15.150307356732103,0.0004688736
200.95,765.4,29018.0,3.4461e-05,-0.24442,2.3933,125.59,25.721,45.129,787.33,-0.031509,87.449,0.10978,supercritical,O2,C7782447,oxygen,154.58,50.43,13.6,0.07352941176470588,1.3,15.177473725956771,0.0004686696
200.95,766.76,29030.0,3.4447e-05,-0.24608,2.3952,125.57,25.724,45.12,787.96,-0.031561,87.548,0.10988,supercritical,O2,C7782447,oxygen,154.58,50.43,13.6,0.07352941176470588,1.3,15.204441800515566,0.00046847919999999996
200.95,768.13,29042.0,3.4433e-05,-0.24774,2.3971,125.56,25.727,45.11,788.59,-0.031612,87.647,0.10998,supercritical,O2,C7782447,oxygen,154.58,50.43,13.6,0.07352941176470588,1.3,15.231608169740234,0.0004682888
200.95,769.5,29054.0,3.4418e-05,-0.2494,2.3991,125.55,25.73,45.1,789.22,-0.031664,87.746,0.11008,supercritical,O2,C7782447,oxygen,154.58,50.43,13.6,0.07352941176470588,1.3,15.258774538964902,0.0004680848