Temperature (K),Pressure (bar),Density (mol/m3),Volume (m3/mol),Internal Energy (kJ/mol),Enthalpy (kJ/mol),Entropy (J/mol*K),Cv (J/mol*K),Cp (J/mol*K),Sound Spd. (m/s),Joule-Thomson (K/bar),Viscosity (uPa*s),Therm. Cond. (W/m*K),Phase,substance,substance_id,substance_name,Tc,Pc,rhoc,Vmc,Tr,Pr,Vmr
256.46,1.0,46.953,0.021298,3.1906,5.3204,151.69,12.483,20.856,298.27,0.48167,19.915,0.015617,vapor,Ar,C7440371,argon,150.86,48.9805,13.41,0.07457121551081282,1.6999999999999997,0.020416288114657875,0.28560618000000004
256.46,2.63,123.73,0.0080822,3.1784,5.304,143.6,12.502,20.971,298.28,0.47957,19.947,0.015679,vapor,Ar,C7440371,argon,150.86,48.9805,13.41,0.07457121551081282,1.6999999999999997,0.053694837741550205,0.108382302
256.46,4.26,200.81,0.0049799,3.1662,5.2876,139.54,12.52,21.087,298.3,0.47746,19.981,0.015742,vapor,Ar,C7440371,argon,150.86,48.9805,13.41,0.07457121551081282,1.6999999999999997,0.08697338736844254,0.066780459
256.46,5.89,278.18,0.0035947,3.1539,5.2712,136.8,12.539,21.203,298.32,0.47534,20.016,0.015806,vapor,Ar,C7440371,argon,150.86,48.9805,13.41,0.07457121551081282,1.6999999999999997,0.12025193699533487,0.04820492700000001
256.46,7.52,355.86,0.0028101,3.1416,5.2548,134.72,12.558,21.321,298.35,0.4732,20.052,0.015871,vapor,Ar,C7440371,argon,150.86,48.9805,13.41,0.07457121551081282,1.6999999999999997,0.1535304866222272,0.037683441000000005
256.46,9.15,433.84,0.002305,3.1293,5.2383,133.04,12.576,21.44,298.38,0.47105,20.088,0.015937,vapor,Ar,C7440371,argon,150.86,48.9805,13.41,0.07457121551081282,1.6999999999999997,0.18680903624911957,0.030910050000000005
256.46,10.78,512.12,0.0019527,3.1169,5.2219,131.63,12.595,21.559,298.41,0.46888,20.125,0.016004,vapor,Ar,C7440371,argon,150.86,48.9805,13.41,0.07457121551081282,1.6999999999999997,0.22008758587601188,0.026185707000000003
256.46,12.41,590.7,0.0016929,3.1045,5.2054,130.41,12.613,21.68,298.46,0.4667,20.164,0.016072,vapor,Ar,C7440371,argon,150.86,48.9805,13.41,0.07457121551081282,1.6999999999999997,0.2533661355029042,0.022701789000000003
256.46,14.04,669.59,0.0014935,3.0921,5.1889,129.34,12.632,21.801,298.5,0.46451,20.203,0.016141,vapor,Ar,C7440371,argon,150.86,48.9805,13.41,0.07457121551081282,1.6999999999999997,0.2866446851297965,0.020027835
256.46,15.67,748.77,0.0013355,3.0796,5.1724,128.38,12.651,21.924,298.56,0.4623,20.243,0.016211,vapor,Ar,C7440371,argon,150.86,48.9805,13.41,0.07457121551081282,1.6999999999999997,0.3199232347566889,0.017909055000000004
256.46,17.3,828.25,0.0012074,3.0671,5.1558,127.5,12.669,22.048,298.61,0.46008,20.285,0.016282,vapor,Ar,C7440371,argon,150.86,48.9805,13.41,0.07457121551081282,1.6999999999999997,0.35320178438358124,0.016191234000000002
256.46,18.93,908.04,0.0011013,3.0546,5.1393,126.71,12.688,22.172,298.68,0.45784,20.327,0.016355,vapor,Ar,C7440371,argon,150.86,48.9805,13.41,0.07457121551081282,1.6999999999999997,0.38648033401047355,0.014768433000000001
256.46,20.56,988.12,0.001012,3.042,5.1227,125.97,12.706,22.298,298.75,0.45559,20.37,0.016428,vapor,Ar,C7440371,argon,150.86,48.9805,13.41,0.07457121551081282,1.6999999999999997,0.41975888363736585,0.013570920000000002
256.46,22.19,1068.5,0.0009359,3.0294,5.1062,125.29,12.724,22.425,298.82,0.45333,20.414,0.016502,vapor,Ar,C7440371,argon,150.86,48.9805,13.41,0.07457121551081282,1.6999999999999997,0.45303743326425827,0.012550419000000002
256.46,23.82,1149.2,0.00087019,3.0168,5.0896,124.65,12.743,22.552,298.9,0.45105,20.459,0.016578,vapor,Ar,C7440371,argon,150.86,48.9805,13.41,0.07457121551081282,1.6999999999999997,0.4863159828911506,0.0116692479
256.46,25.45,1230.1,0.00081291,3.0042,5.073,124.05,12.761,22.681,298.99,0.44876,20.505,0.016654,vapor,Ar,C7440371,argon,150.86,48.9805,13.41,0.07457121551081282,1.6999999999999997,0.5195945325180429,0.010901123100000002
256.46,27.08,1311.4,0.00076253,2.9915,5.0564,123.49,12.78,22.81,299.08,0.44646,20.552,0.016732,vapor,Ar,C7440371,argon,150.86,48.9805,13.41,0.07457121551081282,1.6999999999999997,0.5528730821449352,0.0102255273
256.46,28.71,1393.0,0.00071788,2.9788,5.0398,122.95,12.798,22.941,299.18,0.44414,20.6,0.016811,vapor,Ar,C7440371,argon,150.86,48.9805,13.41,0.07457121551081282,1.6999999999999997,0.5861516317718276,0.0096267708
256.46,30.34,1474.8,0.00067804,2.966,5.0232,122.44,12.816,23.072,299.29,0.44181,20.65,0.016891,vapor,Ar,C7440371,argon,150.86,48.9805,13.41,0.07457121551081282,1.6999999999999997,0.6194301813987199,0.0090925164
256.46,31.97,1557.0,0.00064226,2.9533,5.0066,121.96,12.835,23.205,299.4,0.43946,20.7,0.016972,vapor,Ar,C7440371,argon,150.86,48.9805,13.41,0.07457121551081282,1.6999999999999997,0.6527087310256122,0.0086127066
256.46,33.6,1639.4,0.00060997,2.9405,4.99,121.5,12.853,23.338,299.52,0.43711,20.751,0.017054,vapor,Ar,C7440371,argon,150.86,48.9805,13.41,0.07457121551081282,1.6999999999999997,0.6859872806525046,0.008179697700000002
256.46,35.23,1722.2,0.00058067,2.9276,4.9733,121.05,12.871,23.472,299.64,0.43474,20.803,0.017137,vapor,Ar,C7440371,argon,150.86,48.9805,13.41,0.07457121551081282,1.6999999999999997,0.7192658302793968,0.007786784700000001
256.46,36.86,1805.2,0.00055396,2.9148,4.9567,120.63,12.889,23.607,299.77,0.43235,20.857,0.017222,vapor,Ar,C7440371,argon,150.86,48.9805,13.41,0.07457121551081282,1.6999999999999997,0.7525443799062892,0.007428603600000002
256.46,38.49,1888.5,0.00052952,2.9019,4.9401,120.22,12.907,23.743,299.91,0.42996,20.911,0.017307,vapor,Ar,C7440371,argon,150.86,48.9805,13.41,0.07457121551081282,1.6999999999999997,0.7858229295331817,0.007100863200000001
256.46,40.12,1972.1,0.00050708,2.889,4.9234,119.83,12.925,23.88,300.06,0.42755,20.966,0.017394,vapor,Ar,C7440371,argon,150.86,48.9805,13.41,0.07457121551081282,1.6999999999999997,0.8191014791600739,0.006799942800000001
256.46,41.75,2056.0,0.00048639,2.8761,4.9068,119.44,12.943,24.018,300.21,0.42513,21.023,0.017482,vapor,Ar,C7440371,argon,150.86,48.9805,13.41,0.07457121551081282,1.6999999999999997,0.8523800287869663,0.006522489900000001
256.46,43.38,2140.1,0.00046727,2.8631,4.8901,119.08,12.961,24.157,300.36,0.42269,21.08,0.017571,vapor,Ar,C7440371,argon,150.86,48.9805,13.41,0.07457121551081282,1.6999999999999997,0.8856585784138586,0.006266090700000001
256.46,45.01,2224.5,0.00044953,2.8501,4.8735,118.72,12.979,24.296,300.53,0.42025,21.139,0.017661,vapor,Ar,C7440371,argon,150.86,48.9805,13.41,0.07457121551081282,1.6999999999999997,0.9189371280407509,0.0060281973
256.46,46.64,2309.2,0.00043304,2.8371,4.8568,118.38,12.997,24.437,300.7,0.41779,21.199,0.017753,vapor,Ar,C7440371,argon,150.86,48.9805,13.41,0.07457121551081282,1.6999999999999997,0.9522156776676433,0.005807066400000001
256.46,48.27,2394.2,0.00041767,2.8241,4.8402,118.04,13.015,24.578,300.88,0.41532,21.259,0.017845,vapor,Ar,C7440371,argon,150.86,48.9805,13.41,0.07457121551081282,1.6999999999999997,0.9854942272945356,0.005600954700000001
256.46,49.9,2479.5,0.00040331,2.811,4.8236,117.71,13.033,24.72,301.06,0.41284,21.321,0.017939,vapor,Ar,C7440371,argon,150.86,48.9805,13.41,0.07457121551081282,1.6999999999999997,1.0187727769214279,0.0054083871
256.46,49.9,2479.5,0.00040331,2.811,4.8236,117.71,13.033,24.72,301.06,0.41284,21.321,0.017939,supercritical,Ar,C7440371,argon,150.86,48.9805,13.41,0.07457121551081282,1.6999999999999997,1.0187727769214279,0.0054083871
256.46,51.53,2565.0,0.00038986,2.798,4.8069,117.4,13.051,24.863,301.26,0.41035,21.384,0.018034,supercritical,Ar,C7440371,argon,150.86,48.9805,13.41,0.07457121551081282,1.6999999999999997,1.0520513265483202,0.005228022600000001
256.46,53.16,2650.8,0.00037725,2.7849,4.7903,117.09,13.068,25.006,301.46,0.40785,21.448,0.01813,supercritical,Ar,C7440371,argon,150.86,48.9805,13.41,0.07457121551081282,1.6999999999999997,1.0853298761752126,0.0050589225
256.46,54.79,2736.8,0.00036539,2.7717,4.7737,116.79,13.086,25.151,301.66,0.40533,21.513,0.018227,supercritical,Ar,C7440371,argon,150.86,48.9805,13.41,0.07457121551081282,1.6999999999999997,1.118608425802105,0.0048998799
256.46,56.42,2823.1,0.00035422,2.7586,4.7571,116.49,13.103,25.296,301.88,0.40281,21.579,0.018325,supercritical,Ar,C7440371,argon,150.86,48.9805,13.41,0.07457121551081282,1.6999999999999997,1.1518869754289973,0.0047500902
256.46,58.05,2909.7,0.00034368,2.7454,4.7405,116.21,13.121,25.441,302.1,0.40027,21.647,0.018425,supercritical,Ar,C7440371,argon,150.86,48.9805,13.41,0.07457121551081282,1.6999999999999997,1.1851655250558895,0.0046087488000000005
256.46,59.68,2996.5,0.00033372,2.7322,4.7239,115.93,13.138,25.588,302.33,0.39773,21.715,0.018526,supercritical,Ar,C7440371,argon,150.86,48.9805,13.41,0.07457121551081282,1.6999999999999997,1.218444074682782,0.0044751852000000005
256.46,61.31,3083.6,0.0003243,2.719,4.7073,115.65,13.156,25.735,302.57,0.39517,21.785,0.018627,supercritical,Ar,C7440371,argon,150.86,48.9805,13.41,0.07457121551081282,1.6999999999999997,1.2517226243096744,0.0043488630000000006
256.46,62.94,3170.9,0.00031537,2.7058,4.6907,115.39,13.173,25.882,302.81,0.39261,21.855,0.01873,supercritical,Ar,C7440371,argon,150.86,48.9805,13.41,0.07457121551081282,1.6999999999999997,1.2850011739365665,0.0042291117000000005
256.46,64.57,3258.4,0.0003069,2.6925,4.6742,115.12,13.19,26.03,303.07,0.39004,21.927,0.018834,supercritical,Ar,C7440371,argon,150.86,48.9805,13.41,0.07457121551081282,1.6999999999999997,1.318279723563459,0.004115529
256.46,66.2,3346.2,0.00029885,2.6793,4.6576,114.87,13.208,26.179,303.33,0.38745,21.999,0.018939,supercritical,Ar,C7440371,argon,150.86,48.9805,13.41,0.07457121551081282,1.6999999999999997,1.3515582731903513,0.004007578500000001
256.46,67.83,3434.2,0.00029119,2.666,4.6411,114.62,13.225,26.329,303.6,0.38486,22.073,0.019046,supercritical,Ar,C7440371,argon,150.86,48.9805,13.41,0.07457121551081282,1.6999999999999997,1.3848368228172436,0.0039048579
256.46,69.46,3522.5,0.00028389,2.6527,4.6246,114.37,13.242,26.478,303.88,0.38226,22.148,0.019153,supercritical,Ar,C7440371,argon,150.86,48.9805,13.41,0.07457121551081282,1.6999999999999997,1.4181153724441358,0.0038069649000000007
256.46,71.09,3610.9,0.00027694,2.6394,4.6081,114.13,13.259,26.629,304.16,0.37966,22.224,0.019262,supercritical,Ar,C7440371,argon,150.86,48.9805,13.41,0.07457121551081282,1.6999999999999997,1.4513939220710284,0.0037137654
256.46,72.72,3699.6,0.0002703,2.626,4.5916,113.89,13.275,26.779,304.45,0.37704,22.301,0.019371,supercritical,Ar,C7440371,argon,150.86,48.9805,13.41,0.07457121551081282,1.6999999999999997,1.4846724716979205,0.0036247230000000007
256.46,74.35,3788.5,0.00026395,2.6127,4.5752,113.65,13.292,26.93,304.76,0.37442,22.379,0.019482,supercritical,Ar,C7440371,argon,150.86,48.9805,13.41,0.07457121551081282,1.6999999999999997,1.5179510213248129,0.0035395695000000004
256.46,75.98,3877.6,0.00025789,2.5993,4.5588,113.42,13.309,27.082,305.07,0.37179,22.458,0.019593,supercritical,Ar,C7440371,argon,150.86,48.9805,13.41,0.07457121551081282,1.6999999999999997,1.5512295709517054,0.0034583049
256.46,77.61,3967.0,0.00025208,2.5859,4.5424,113.2,13.326,27.234,305.39,0.36916,22.538,0.019706,supercritical,Ar,C7440371,argon,150.86,48.9805,13.41,0.07457121551081282,1.6999999999999997,1.5845081205785976,0.0033803928000000006
256.46,79.24,4056.5,0.00024652,2.5726,4.526,112.98,13.342,27.386,305.71,0.36651,22.62,0.01982,supercritical,Ar,C7440371,argon,150.86,48.9805,13.41,0.07457121551081282,1.6999999999999997,1.61778667020549,0.0033058332000000007
256.46,80.87,4146.2,0.00024119,2.5592,4.5096,112.76,13.359,27.538,306.05,0.36387,22.702,0.019934,supercritical,Ar,C7440371,argon,150.86,48.9805,13.41,0.07457121551081282,1.6999999999999997,1.6510652198323823,0.0032343579000000005
256.46,82.5,4236.1,0.00023607,2.5458,4.4933,112.54,13.375,27.691,306.39,0.36121,22.785,0.02005,supercritical,Ar,C7440371,argon,150.86,48.9805,13.41,0.07457121551081282,1.6999999999999997,1.6843437694592747,0.0031656987000000004
256.46,84.13,4326.2,0.00023115,2.5323,4.477,112.33,13.391,27.844,306.75,0.35856,22.869,0.020167,supercritical,Ar,C7440371,argon,150.86,48.9805,13.41,0.07457121551081282,1.6999999999999997,1.7176223190861668,0.0030997215000000003
256.46,85.76,4416.4,0.00022643,2.5189,4.4608,112.12,13.407,27.997,307.11,0.35589,22.955,0.020284,supercritical,Ar,C7440371,argon,150.86,48.9805,13.41,0.07457121551081282,1.6999999999999997,1.7509008687130594,0.0030364263000000006
256.46,87.39,4506.8,0.00022189,2.5055,4.4445,111.92,13.423,28.15,307.48,0.35323,23.041,0.020403,supercritical,Ar,C7440371,argon,150.86,48.9805,13.41,0.07457121551081282,1.6999999999999997,1.7841794183399518,0.0029755449000000004
256.46,89.02,4597.4,0.00021751,2.4921,4.4284,111.71,13.439,28.303,307.86,0.35055,23.128,0.020522,supercritical,Ar,C7440371,argon,150.86,48.9805,13.41,0.07457121551081282,1.6999999999999997,1.817457967966844,0.0029168091000000003
256.46,90.65,4688.2,0.0002133,2.4786,4.4122,111.51,13.455,28.456,308.25,0.34788,23.217,0.020643,supercritical,Ar,C7440371,argon,150.86,48.9805,13.41,0.07457121551081282,1.6999999999999997,1.8507365175937365,0.0028603530000000004
256.46,92.28,4779.1,0.00020925,2.4652,4.3961,111.32,13.471,28.609,308.64,0.3452,23.306,0.020764,supercritical,Ar,C7440371,argon,150.86,48.9805,13.41,0.07457121551081282,1.6999999999999997,1.8840150672206286,0.0028060425
256.46,93.91,4870.1,0.00020533,2.4517,4.38,111.12,13.487,28.763,309.05,0.34252,23.396,0.020886,supercritical,Ar,C7440371,argon,150.86,48.9805,13.41,0.07457121551081282,1.6999999999999997,1.917293616847521,0.0027534753
256.46,95.54,4961.3,0.00020156,2.4383,4.364,110.93,13.502,28.916,309.47,0.33984,23.487,0.021009,supercritical,Ar,C7440371,argon,150.86,48.9805,13.41,0.07457121551081282,1.6999999999999997,1.9505721664744133,0.0027029196
256.46,97.17,5052.6,0.00019792,2.4248,4.348,110.74,13.518,29.068,309.89,0.33715,23.579,0.021133,supercritical,Ar,C7440371,argon,150.86,48.9805,13.41,0.07457121551081282,1.6999999999999997,1.9838507161013057,0.0026541072000000002
256.46,98.8,5144.0,0.0001944,2.4113,4.332,110.55,13.533,29.221,310.32,0.33446,23.672,0.021258,supercritical,Ar,C7440371,argon,150.86,48.9805,13.41,0.07457121551081282,1.6999999999999997,2.017129265728198,0.002606904
256.46,100.43,5235.5,0.000191,2.3979,4.3161,110.37,13.548,29.374,310.77,0.33178,23.766,0.021383,supercritical,Ar,C7440371,argon,150.86,48.9805,13.41,0.07457121551081282,1.6999999999999997,2.0504078153550904,0.0025613100000000002
256.46,102.06,5327.2,0.00018772,2.3844,4.3003,110.19,13.563,29.526,311.22,0.32909,23.861,0.021509,supercritical,Ar,C7440371,argon,150.86,48.9805,13.41,0.07457121551081282,1.6999999999999997,2.0836863649819826,0.0025173252
256.46,103.69,5419.0,0.00018454,2.371,4.2844,110.01,13.578,29.678,311.68,0.3264,23.957,0.021636,supercritical,Ar,C7440371,argon,150.86,48.9805,13.41,0.07457121551081282,1.6999999999999997,2.116964914608875,0.0024746814
256.46,105.32,5510.8,0.00018146,2.3575,4.2687,109.83,13.593,29.829,312.15,0.32371,24.054,0.021764,supercritical,Ar,C7440371,argon,150.86,48.9805,13.41,0.07457121551081282,1.6999999999999997,2.1502434642357673,0.0024333786
256.46,106.95,5602.7,0.00017848,2.3441,4.253,109.65,13.608,29.98,312.63,0.32102,24.151,0.021892,supercritical,Ar,C7440371,argon,150.86,48.9805,13.41,0.07457121551081282,1.6999999999999997,2.18352201386266,0.0023934168000000005
256.46,108.58,5694.7,0.0001756,2.3306,4.2373,109.48,13.623,30.131,313.12,0.31833,24.249,0.022021,supercritical,Ar,C7440371,argon,150.86,48.9805,13.41,0.07457121551081282,1.6999999999999997,2.216800563489552,0.0023547960000000006
256.46,110.21,5786.8,0.00017281,2.3172,4.2217,109.31,13.637,30.281,313.62,0.31564,24.349,0.02215,supercritical,Ar,C7440371,argon,150.86,48.9805,13.41,0.07457121551081282,1.6999999999999997,2.250079113116444,0.0023173821000000002
256.46,111.84,5879.0,0.0001701,2.3038,4.2061,109.14,13.652,30.43,314.13,0.31296,24.449,0.022281,supercritical,Ar,C7440371,argon,150.86,48.9805,13.41,0.07457121551081282,1.6999999999999997,2.2833576627433367,0.002281041
256.46,113.47,5971.2,0.00016747,2.2903,4.1906,108.97,13.666,30.579,314.65,0.31027,24.549,0.022411,supercritical,Ar,C7440371,argon,150.86,48.9805,13.41,0.07457121551081282,1.6999999999999997,2.316636212370229,0.0022457727000000003
256.46,115.1,6063.4,0.00016492,2.2769,4.1752,108.8,13.68,30.727,315.18,0.30759,24.651,0.022543,supercritical,Ar,C7440371,argon,150.86,48.9805,13.41,0.07457121551081282,1.6999999999999997,2.349914761997121,0.0022115772000000002
256.46,116.73,6155.7,0.00016245,2.2635,4.1598,108.64,13.694,30.874,315.71,0.30492,24.754,0.022675,supercritical,Ar,C7440371,argon,150.86,48.9805,13.41,0.07457121551081282,1.6999999999999997,2.3831933116240136,0.0021784545
256.46,118.36,6248.0,0.00016005,2.2502,4.1445,108.48,13.708,31.021,316.26,0.30224,24.857,0.022807,supercritical,Ar,C7440371,argon,150.86,48.9805,13.41,0.07457121551081282,1.6999999999999997,2.416471861250906,0.0021462705
256.46,119.99,6340.3,0.00015772,2.2368,4.1293,108.32,13.722,31.167,316.81,0.29957,24.961,0.02294,supercritical,Ar,C7440371,argon,150.86,48.9805,13.41,0.07457121551081282,1.6999999999999997,2.4497504108777983,0.0021150252
256.46,121.62,6432.7,0.00015546,2.2234,4.1141,108.16,13.736,31.312,317.38,0.2969,25.066,0.023074,supercritical,Ar,C7440371,argon,150.86,48.9805,13.41,0.07457121551081282,1.6999999999999997,2.483028960504691,0.0020847186000000004
256.46,123.25,6525.0,0.00015326,2.2101,4.099,108.0,13.749,31.456,317.96,0.29424,25.171,0.023208,supercritical,Ar,C7440371,argon,150.86,48.9805,13.41,0.07457121551081282,1.6999999999999997,2.516307510131583,0.0020552166
256.46,124.88,6617.3,0.00015112,2.1967,4.0839,107.85,13.762,31.599,318.54,0.29159,25.277,0.023342,supercritical,Ar,C7440371,argon,150.86,48.9805,13.41,0.07457121551081282,1.6999999999999997,2.549586059758475,0.0020265192
256.46,126.51,6709.7,0.00014904,2.1834,4.0689,107.69,13.776,31.741,319.13,0.28893,25.384,0.023477,supercritical,Ar,C7440371,argon,150.86,48.9805,13.41,0.07457121551081282,1.6999999999999997,2.5828646093853678,0.0019986264
256.46,128.14,6802.0,0.00014702,2.1701,4.054,107.54,13.789,31.883,319.74,0.28629,25.492,0.023613,supercritical,Ar,C7440371,argon,150.86,48.9805,13.41,0.07457121551081282,1.6999999999999997,2.61614315901226,0.0019715382
256.46,129.77,6894.2,0.00014505,2.1569,4.0392,107.39,13.802,32.023,320.35,0.28365,25.6,0.023748,supercritical,Ar,C7440371,argon,150.86,48.9805,13.41,0.07457121551081282,1.6999999999999997,2.6494217086391525,0.0019451205000000002
256.46,131.4,6986.5,0.00014313,2.1436,4.0244,107.24,13.815,32.161,320.97,0.28102,25.709,0.023884,supercritical,Ar,C7440371,argon,150.86,48.9805,13.41,0.07457121551081282,1.6999999999999997,2.6827002582660446,0.0019193733000000001
256.46,133.03,7078.6,0.00014127,2.1304,4.0097,107.09,13.828,32.299,321.61,0.27839,25.819,0.024021,supercritical,Ar,C7440371,argon,150.86,48.9805,13.41,0.07457121551081282,1.6999999999999997,2.715978807892937,0.0018944307000000004
256.46,134.66,7170.7,0.00013946,2.1172,3.9951,106.95,13.84,32.436,322.25,0.27577,25.93,0.024158,supercritical,Ar,C7440371,argon,150.86,48.9805,13.41,0.07457121551081282,1.6999999999999997,2.7492573575198294,0.0018701586000000002
256.46,136.29,7262.8,0.00013769,2.104,3.9805,106.8,13.853,32.571,322.9,0.27316,26.041,0.024295,supercritical,Ar,C7440371,argon,150.86,48.9805,13.41,0.07457121551081282,1.6999999999999997,2.7825359071467215,0.0018464229
256.46,137.92,7354.8,0.00013597,2.0908,3.9661,106.66,13.865,32.705,323.56,0.27056,26.153,0.024432,supercritical,Ar,C7440371,argon,150.86,48.9805,13.41,0.07457121551081282,1.6999999999999997,2.8158144567736136,0.0018233577
256.46,139.55,7446.7,0.00013429,2.0777,3.9517,106.52,13.877,32.837,324.23,0.26796,26.265,0.02457,supercritical,Ar,C7440371,argon,150.86,48.9805,13.41,0.07457121551081282,1.6999999999999997,2.8490930064005067,0.0018008289
256.46,141.18,7538.5,0.00013265,2.0646,3.9374,106.38,13.889,32.969,324.91,0.26538,26.378,0.024708,supercritical,Ar,C7440371,argon,150.86,48.9805,13.41,0.07457121551081282,1.6999999999999997,2.882371556027399,0.0017788365000000002