Temperature (K),Pressure (bar),Density (mol/m3),Volume (m3/mol),Internal Energy (kJ/mol),Enthalpy (kJ/mol),Entropy (J/mol*K),Cv (J/mol*K),Cp (J/mol*K),Sound Spd. (m/s),Joule-Thomson (K/bar),Viscosity (uPa*s),Therm. Cond. (W/m*K),Phase,substance,substance_id,substance_name,Tc,Pc,rhoc,Vmc,Tr,Pr,Vmr
247.33,261.71,14620.0,6.84e-05,2.9233,4.7135,145.69,23.235,49.551,390.5,0.094776,33.243,0.04808,supercritical,O2,C7782447,oxygen,154.58,50.43,13.6,0.07352941176470588,1.6,5.1895697005750545,0.0009302399999999999
247.33,263.08,14679.0,6.8123e-05,2.9149,4.7071,145.62,23.239,49.548,391.54,0.093724,33.355,0.048233,supercritical,O2,C7782447,oxygen,154.58,50.43,13.6,0.07352941176470588,1.6,5.2167360697997225,0.0009264728
247.33,264.44,14739.0,6.7849e-05,2.9065,4.7008,145.56,23.243,49.544,392.58,0.092681,33.467,0.048385,supercritical,O2,C7782447,oxygen,154.58,50.43,13.6,0.07352941176470588,1.6,5.243704144358516,0.0009227463999999999
247.33,265.81,14797.0,6.7579e-05,2.8982,4.6945,145.5,23.248,49.54,393.62,0.091649,33.58,0.048536,supercritical,O2,C7782447,oxygen,154.58,50.43,13.6,0.07352941176470588,1.6,5.270870513583184,0.0009190743999999999
247.33,267.18,14856.0,6.7313e-05,2.8899,4.6884,145.44,23.252,49.535,394.66,0.090626,33.692,0.048688,supercritical,O2,C7782447,oxygen,154.58,50.43,13.6,0.07352941176470588,1.6,5.298036882807852,0.0009154568
247.33,268.54,14914.0,6.7051e-05,2.8817,4.6823,145.37,23.256,49.529,395.7,0.089612,33.803,0.048838,supercritical,O2,C7782447,oxygen,154.58,50.43,13.6,0.07352941176470588,1.6,5.325004957366647,0.0009118936000000001
247.33,269.9,14972.0,6.6792e-05,2.8735,4.6763,145.31,23.26,49.523,396.75,0.088608,33.915,0.048989,supercritical,O2,C7782447,oxygen,154.58,50.43,13.6,0.07352941176470588,1.6,5.351973031925441,0.0009083711999999999
247.33,271.27,15029.0,6.6536e-05,2.8654,4.6703,145.25,23.264,49.515,397.79,0.087614,34.026,0.049139,supercritical,O2,C7782447,oxygen,154.58,50.43,13.6,0.07352941176470588,1.6,5.379139401150109,0.0009048896
247.33,272.63,15087.0,6.6284e-05,2.8573,4.6644,145.19,23.268,49.507,398.83,0.086629,34.138,0.049288,supercritical,O2,C7782447,oxygen,154.58,50.43,13.6,0.07352941176470588,1.6,5.406107475708903,0.0009014624
247.33,274.0,15144.0,6.6035e-05,2.8493,4.6586,145.13,23.273,49.499,399.88,0.085653,34.248,0.049437,supercritical,O2,C7782447,oxygen,154.58,50.43,13.6,0.07352941176470588,1.6,5.433273844933571,0.0008980759999999999
247.33,275.37,15200.0,6.5789e-05,2.8413,4.6528,145.07,23.277,49.49,400.92,0.084687,34.359,0.049585,supercritical,O2,C7782447,oxygen,154.58,50.43,13.6,0.07352941176470588,1.6,5.460440214158239,0.0008947304
247.33,276.73,15256.0,6.5546e-05,2.8333,4.6472,145.01,23.281,49.48,401.97,0.08373,34.47,0.049734,supercritical,O2,C7782447,oxygen,154.58,50.43,13.6,0.07352941176470588,1.6,5.487408288717034,0.0008914255999999999
247.33,278.1,15312.0,6.5307e-05,2.8254,4.6415,144.95,23.285,49.469,403.02,0.082781,34.58,0.049881,supercritical,O2,C7782447,oxygen,154.58,50.43,13.6,0.07352941176470588,1.6,5.514574657941702,0.0008881752
247.33,279.46,15368.0,6.507e-05,2.8175,4.636,144.9,23.289,49.459,404.06,0.081842,34.69,0.050028,supercritical,O2,C7782447,oxygen,154.58,50.43,13.6,0.07352941176470588,1.6,5.541542732500496,0.0008849519999999999
247.33,280.82,15423.0,6.4837e-05,2.8097,4.6305,144.84,23.293,49.447,405.11,0.080912,34.8,0.050175,supercritical,O2,C7782447,oxygen,154.58,50.43,13.6,0.07352941176470588,1.6,5.56851080705929,0.0008817832
247.33,282.19,15478.0,6.4606e-05,2.8019,4.6251,144.78,23.297,49.435,406.16,0.07999,34.91,0.050321,supercritical,O2,C7782447,oxygen,154.58,50.43,13.6,0.07352941176470588,1.6,5.595677176283958,0.0008786416
247.33,283.56,15533.0,6.4379e-05,2.7942,4.6197,144.72,23.301,49.422,407.21,0.079077,35.019,0.050467,supercritical,O2,C7782447,oxygen,154.58,50.43,13.6,0.07352941176470588,1.6,5.622843545508626,0.0008755544
247.33,284.92,15588.0,6.4154e-05,2.7865,4.6144,144.67,23.305,49.409,408.25,0.078173,35.128,0.050613,supercritical,O2,C7782447,oxygen,154.58,50.43,13.6,0.07352941176470588,1.6,5.64981162006742,0.0008724943999999999
247.33,286.29,15642.0,6.3932e-05,2.7789,4.6091,144.61,23.309,49.396,409.3,0.077278,35.237,0.050758,supercritical,O2,C7782447,oxygen,154.58,50.43,13.6,0.07352941176470588,1.6,5.676977989292088,0.0008694751999999999
247.33,287.65,15695.0,6.3713e-05,2.7713,4.604,144.55,23.312,49.382,410.35,0.076391,35.346,0.050902,supercritical,O2,C7782447,oxygen,154.58,50.43,13.6,0.07352941176470588,1.6,5.703946063850882,0.0008664968000000001
247.33,289.01,15749.0,6.3496e-05,2.7637,4.5988,144.5,23.316,49.367,411.4,0.075512,35.454,0.051046,supercritical,O2,C7782447,oxygen,154.58,50.43,13.6,0.07352941176470588,1.6,5.730914138409677,0.0008635456000000001
247.33,290.38,15802.0,6.3282e-05,2.7562,4.5938,144.44,23.32,49.352,412.45,0.074642,35.563,0.05119,supercritical,O2,C7782447,oxygen,154.58,50.43,13.6,0.07352941176470588,1.6,5.758080507634345,0.0008606351999999999
247.33,291.75,15855.0,6.3071e-05,2.7487,4.5888,144.39,23.324,49.336,413.5,0.07378,35.671,0.051333,supercritical,O2,C7782447,oxygen,154.58,50.43,13.6,0.07352941176470588,1.6,5.785246876859013,0.0008577656
247.33,293.11,15908.0,6.2863e-05,2.7413,4.5839,144.33,23.328,49.321,414.55,0.072926,35.779,0.051476,supercritical,O2,C7782447,oxygen,154.58,50.43,13.6,0.07352941176470588,1.6,5.812214951417807,0.0008549368
247.33,294.48,15960.0,6.2656e-05,2.7339,4.579,144.28,23.332,49.304,415.6,0.07208,35.886,0.051619,supercritical,O2,C7782447,oxygen,154.58,50.43,13.6,0.07352941176470588,1.6,5.839381320642475,0.0008521216
247.33,295.84,16012.0,6.2453e-05,2.7265,4.5741,144.22,23.336,49.288,416.64,0.071242,35.994,0.051761,supercritical,O2,C7782447,oxygen,154.58,50.43,13.6,0.07352941176470588,1.6,5.866349395201269,0.0008493608
247.33,297.2,16064.0,6.2251e-05,2.7192,4.5694,144.17,23.339,49.271,417.69,0.070413,36.101,0.051902,supercritical,O2,C7782447,oxygen,154.58,50.43,13.6,0.07352941176470588,1.6,5.893317469760063,0.0008466136
247.33,298.57,16115.0,6.2053e-05,2.712,4.5647,144.12,23.343,49.253,418.74,0.069591,36.208,0.052043,supercritical,O2,C7782447,oxygen,154.58,50.43,13.6,0.07352941176470588,1.6,5.920483838984731,0.0008439207999999999
247.33,299.94,16167.0,6.1856e-05,2.7047,4.56,144.06,23.347,49.235,419.79,0.068777,36.315,0.052184,supercritical,O2,C7782447,oxygen,154.58,50.43,13.6,0.07352941176470588,1.6,5.947650208209399,0.0008412415999999999
247.33,301.3,16217.0,6.1662e-05,2.6976,4.5554,144.01,23.351,49.217,420.84,0.06797,36.421,0.052324,supercritical,O2,C7782447,oxygen,154.58,50.43,13.6,0.07352941176470588,1.6,5.974618282768194,0.0008386031999999999
247.33,302.67,16268.0,6.147e-05,2.6904,4.5509,143.96,23.355,49.199,421.88,0.067171,36.528,0.052464,supercritical,O2,C7782447,oxygen,154.58,50.43,13.6,0.07352941176470588,1.6,6.001784651992862,0.000835992
247.33,304.03,16318.0,6.128e-05,2.6833,4.5464,143.91,23.358,49.18,422.93,0.06638,36.634,0.052604,supercritical,O2,C7782447,oxygen,154.58,50.43,13.6,0.07352941176470588,1.6,6.028752726551655,0.0008334079999999999
247.33,305.39,16368.0,6.1093e-05,2.6762,4.542,143.85,23.362,49.161,423.98,0.065596,36.74,0.052743,supercritical,O2,C7782447,oxygen,154.58,50.43,13.6,0.07352941176470588,1.6,6.05572080111045,0.0008308648
247.33,306.76,16418.0,6.0908e-05,2.6692,4.5376,143.8,23.366,49.141,425.02,0.06482,36.845,0.052882,supercritical,O2,C7782447,oxygen,154.58,50.43,13.6,0.07352941176470588,1.6,6.082887170335118,0.0008283488
247.33,308.12,16468.0,6.0724e-05,2.6622,4.5333,143.75,23.37,49.122,426.07,0.064051,36.951,0.05302,supercritical,O2,C7782447,oxygen,154.58,50.43,13.6,0.07352941176470588,1.6,6.109855244893913,0.0008258463999999999
247.33,309.49,16517.0,6.0543e-05,2.6553,4.529,143.7,23.373,49.102,427.11,0.063289,37.056,0.053158,supercritical,O2,C7782447,oxygen,154.58,50.43,13.6,0.07352941176470588,1.6,6.137021614118581,0.0008233848
247.33,310.86,16566.0,6.0364e-05,2.6483,4.5248,143.65,23.377,49.082,428.16,0.062535,37.161,0.053296,supercritical,O2,C7782447,oxygen,154.58,50.43,13.6,0.07352941176470588,1.6,6.164187983343249,0.0008209504
247.33,312.22,16615.0,6.0187e-05,2.6415,4.5206,143.6,23.381,49.061,429.2,0.061787,37.266,0.053433,supercritical,O2,C7782447,oxygen,154.58,50.43,13.6,0.07352941176470588,1.6,6.191156057902043,0.0008185432
247.33,313.58,16663.0,6.0012e-05,2.6346,4.5165,143.55,23.385,49.04,430.24,0.061047,37.37,0.05357,supercritical,O2,C7782447,oxygen,154.58,50.43,13.6,0.07352941176470588,1.6,6.2181241324608365,0.0008161632
247.33,314.95,16711.0,5.9839e-05,2.6278,4.5125,143.5,23.388,49.019,431.29,0.060313,37.475,0.053707,supercritical,O2,C7782447,oxygen,154.58,50.43,13.6,0.07352941176470588,1.6,6.2452905016855045,0.0008138104
247.33,316.31,16759.0,5.9668e-05,2.6211,4.5085,143.45,23.392,48.998,432.33,0.059586,37.579,0.053843,supercritical,O2,C7782447,oxygen,154.58,50.43,13.6,0.07352941176470588,1.6,6.272258576244299,0.0008114848
247.33,317.68,16807.0,5.9499e-05,2.6143,4.5045,143.4,23.396,48.977,433.37,0.058867,37.683,0.053979,supercritical,O2,C7782447,oxygen,154.58,50.43,13.6,0.07352941176470588,1.6,6.299424945468967,0.0008091864
247.33,319.05,16854.0,5.9331e-05,2.6076,4.5006,143.35,23.399,48.955,434.41,0.058153,37.786,0.054114,supercritical,O2,C7782447,oxygen,154.58,50.43,13.6,0.07352941176470588,1.6,6.326591314693635,0.0008069015999999999
247.33,320.41,16902.0,5.9166e-05,2.601,4.4967,143.31,23.403,48.933,435.45,0.057447,37.89,0.054249,supercritical,O2,C7782447,oxygen,154.58,50.43,13.6,0.07352941176470588,1.6,6.35355938925243,0.0008046576000000001
247.33,321.77,16949.0,5.9002e-05,2.5944,4.4929,143.26,23.407,48.911,436.49,0.056747,37.993,0.054384,supercritical,O2,C7782447,oxygen,154.58,50.43,13.6,0.07352941176470588,1.6,6.380527463811223,0.0008024272
247.33,323.14,16995.0,5.884e-05,2.5878,4.4891,143.21,23.41,48.889,437.53,0.056054,38.096,0.054518,supercritical,O2,C7782447,oxygen,154.58,50.43,13.6,0.07352941176470588,1.6,6.407693833035891,0.000800224
247.33,324.5,17042.0,5.868e-05,2.5812,4.4854,143.16,23.414,48.867,438.56,0.055367,38.199,0.054652,supercritical,O2,C7782447,oxygen,154.58,50.43,13.6,0.07352941176470588,1.6,6.434661907594686,0.000798048
247.33,325.87,17088.0,5.8521e-05,2.5747,4.4818,143.12,23.418,48.844,439.6,0.054687,38.302,0.054786,supercritical,O2,C7782447,oxygen,154.58,50.43,13.6,0.07352941176470588,1.6,6.461828276819354,0.0007958856
247.33,327.24,17134.0,5.8364e-05,2.5682,4.4781,143.07,23.421,48.821,440.63,0.054012,38.404,0.054919,supercritical,O2,C7782447,oxygen,154.58,50.43,13.6,0.07352941176470588,1.6,6.488994646044022,0.0007937504
247.33,328.6,17179.0,5.8209e-05,2.5618,4.4746,143.02,23.425,48.798,441.67,0.053344,38.506,0.055052,supercritical,O2,C7782447,oxygen,154.58,50.43,13.6,0.07352941176470588,1.6,6.515962720602817,0.0007916424
247.33,329.96,17225.0,5.8056e-05,2.5554,4.471,142.98,23.428,48.775,442.7,0.052683,38.608,0.055185,supercritical,O2,C7782447,oxygen,154.58,50.43,13.6,0.07352941176470588,1.6,6.54293079516161,0.0007895616
247.33,331.33,17270.0,5.7904e-05,2.549,4.4675,142.93,23.432,48.752,443.73,0.052027,38.71,0.055317,supercritical,O2,C7782447,oxygen,154.58,50.43,13.6,0.07352941176470588,1.6,6.5700971643862776,0.0007874943999999999
247.33,332.69,17315.0,5.7753e-05,2.5427,4.4641,142.88,23.436,48.729,444.76,0.051377,38.812,0.055449,supercritical,O2,C7782447,oxygen,154.58,50.43,13.6,0.07352941176470588,1.6,6.597065238945072,0.0007854407999999999
247.33,334.06,17360.0,5.7605e-05,2.5364,4.4607,142.84,23.439,48.705,445.79,0.050734,38.913,0.055581,supercritical,O2,C7782447,oxygen,154.58,50.43,13.6,0.07352941176470588,1.6,6.62423160816974,0.000783428
247.33,335.43,17404.0,5.7457e-05,2.5301,4.4574,142.79,23.443,48.682,446.82,0.050096,39.015,0.055712,supercritical,O2,C7782447,oxygen,154.58,50.43,13.6,0.07352941176470588,1.6,6.651397977394408,0.0007814152
247.33,336.79,17448.0,5.7312e-05,2.5239,4.4541,142.75,23.447,48.658,447.85,0.049464,39.116,0.055843,supercritical,O2,C7782447,oxygen,154.58,50.43,13.6,0.07352941176470588,1.6,6.678366051953203,0.0007794432000000001
247.33,338.15,17492.0,5.7167e-05,2.5176,4.4508,142.7,23.45,48.634,448.88,0.048838,39.216,0.055974,supercritical,O2,C7782447,oxygen,154.58,50.43,13.6,0.07352941176470588,1.6,6.705334126511996,0.0007774711999999999
247.33,339.52,17536.0,5.7025e-05,2.5115,4.4476,142.66,23.454,48.611,449.9,0.048218,39.317,0.056104,supercritical,O2,C7782447,oxygen,154.58,50.43,13.6,0.07352941176470588,1.6,6.732500495736664,0.0007755399999999999
247.33,340.88,17580.0,5.6883e-05,2.5053,4.4444,142.61,23.457,48.587,450.93,0.047603,39.418,0.056234,supercritical,O2,C7782447,oxygen,154.58,50.43,13.6,0.07352941176470588,1.6,6.759468570295459,0.0007736087999999999
247.33,342.25,17623.0,5.6743e-05,2.4992,4.4413,142.57,23.461,48.563,451.95,0.046994,39.518,0.056364,supercritical,O2,C7782447,oxygen,154.58,50.43,13.6,0.07352941176470588,1.6,6.786634939520127,0.0007717048
247.33,343.62,17666.0,5.6605e-05,2.4931,4.4382,142.53,23.465,48.539,452.97,0.046391,39.618,0.056494,supercritical,O2,C7782447,oxygen,154.58,50.43,13.6,0.07352941176470588,1.6,6.813801308744795,0.000769828
247.33,344.98,17709.0,5.6468e-05,2.4871,4.4351,142.48,23.468,48.514,454.0,0.045792,39.718,0.056623,supercritical,O2,C7782447,oxygen,154.58,50.43,13.6,0.07352941176470588,1.6,6.84076938330359,0.0007679648
247.33,346.35,17752.0,5.6332e-05,2.4811,4.4321,142.44,23.472,48.49,455.02,0.0452,39.817,0.056752,supercritical,O2,C7782447,oxygen,154.58,50.43,13.6,0.07352941176470588,1.6,6.867935752528258,0.0007661152
247.33,347.71,17794.0,5.6198e-05,2.4751,4.4291,142.4,23.475,48.466,456.03,0.044613,39.917,0.05688,supercritical,O2,C7782447,oxygen,154.58,50.43,13.6,0.07352941176470588,1.6,6.894903827087051,0.0007642928
247.33,349.07,17837.0,5.6065e-05,2.4691,4.4262,142.35,23.479,48.441,457.05,0.044031,40.016,0.057008,supercritical,O2,C7782447,oxygen,154.58,50.43,13.6,0.07352941176470588,1.6,6.921871901645845,0.000762484
247.33,350.44,17879.0,5.5933e-05,2.4632,4.4233,142.31,23.482,48.417,458.07,0.043454,40.115,0.057136,supercritical,O2,C7782447,oxygen,154.58,50.43,13.6,0.07352941176470588,1.6,6.949038270870513,0.0007606888
247.33,351.81,17920.0,5.5802e-05,2.4573,4.4204,142.27,23.486,48.392,459.08,0.042882,40.214,0.057264,supercritical,O2,C7782447,oxygen,154.58,50.43,13.6,0.07352941176470588,1.6,6.976204640095181,0.0007589071999999999
247.33,353.17,17962.0,5.5673e-05,2.4514,4.4176,142.23,23.49,48.368,460.1,0.042316,40.313,0.057392,supercritical,O2,C7782447,oxygen,154.58,50.43,13.6,0.07352941176470588,1.6,7.003172714653976,0.0007571528
247.33,354.54,18003.0,5.5545e-05,2.4456,4.4149,142.19,23.493,48.343,461.11,0.041754,40.412,0.057519,supercritical,O2,C7782447,oxygen,154.58,50.43,13.6,0.07352941176470588,1.6,7.030339083878644,0.0007554119999999999
247.33,355.9,18045.0,5.5418e-05,2.4398,4.4121,142.14,23.497,48.319,462.12,0.041198,40.51,0.057646,supercritical,O2,C7782447,oxygen,154.58,50.43,13.6,0.07352941176470588,1.6,7.057307158437438,0.0007536848
247.33,357.26,18086.0,5.5293e-05,2.434,4.4094,142.1,23.5,48.294,463.13,0.040647,40.608,0.057772,supercritical,O2,C7782447,oxygen,154.58,50.43,13.6,0.07352941176470588,1.6,7.084275232996232,0.0007519848
247.33,358.63,18126.0,5.5168e-05,2.4283,4.4068,142.06,23.504,48.269,464.14,0.0401,40.706,0.057899,supercritical,O2,C7782447,oxygen,154.58,50.43,13.6,0.07352941176470588,1.6,7.1114416022209,0.0007502848
247.33,360.0,18167.0,5.5045e-05,2.4225,4.4041,142.02,23.507,48.244,465.15,0.039558,40.804,0.058025,supercritical,O2,C7782447,oxygen,154.58,50.43,13.6,0.07352941176470588,1.6,7.138607971445568,0.000748612
247.33,361.36,18207.0,5.4923e-05,2.4168,4.4016,141.98,23.511,48.22,466.15,0.039022,40.902,0.05815,supercritical,O2,C7782447,oxygen,154.58,50.43,13.6,0.07352941176470588,1.6,7.165576046004363,0.0007469528
247.33,362.73,18247.0,5.4802e-05,2.4112,4.399,141.94,23.515,48.195,467.16,0.038489,40.999,0.058276,supercritical,O2,C7782447,oxygen,154.58,50.43,13.6,0.07352941176470588,1.6,7.192742415229031,0.0007453072
247.33,364.09,18287.0,5.4683e-05,2.4055,4.3965,141.9,23.518,48.17,468.16,0.037962,41.097,0.058401,supercritical,O2,C7782447,oxygen,154.58,50.43,13.6,0.07352941176470588,1.6,7.219710489787825,0.0007436888
247.33,365.45,18327.0,5.4564e-05,2.3999,4.394,141.86,23.522,48.145,469.16,0.037439,41.194,0.058526,supercritical,O2,C7782447,oxygen,154.58,50.43,13.6,0.07352941176470588,1.6,7.2466785643466185,0.0007420704
247.33,366.82,18367.0,5.4446e-05,2.3944,4.3916,141.82,23.525,48.121,470.16,0.036921,41.291,0.058651,supercritical,O2,C7782447,oxygen,154.58,50.43,13.6,0.07352941176470588,1.6,7.2738449335712865,0.0007404655999999999
247.33,368.19,18406.0,5.433e-05,2.3888,4.3892,141.78,23.529,48.096,471.16,0.036407,41.387,0.058776,supercritical,O2,C7782447,oxygen,154.58,50.43,13.6,0.07352941176470588,1.6,7.3010113027959544,0.000738888
247.33,369.55,18445.0,5.4215e-05,2.3833,4.3868,141.74,23.532,48.071,472.16,0.035898,41.484,0.0589,supercritical,O2,C7782447,oxygen,154.58,50.43,13.6,0.07352941176470588,1.6,7.327979377354749,0.000737324
247.33,370.92,18484.0,5.41e-05,2.3778,4.3844,141.7,23.536,48.046,473.16,0.035393,41.581,0.059024,supercritical,O2,C7782447,oxygen,154.58,50.43,13.6,0.07352941176470588,1.6,7.355145746579417,0.00073576
247.33,372.28,18523.0,5.3987e-05,2.3723,4.3821,141.66,23.539,48.021,474.15,0.034893,41.677,0.059148,supercritical,O2,C7782447,oxygen,154.58,50.43,13.6,0.07352941176470588,1.6,7.382113821138211,0.0007342232000000001
247.33,373.64,18562.0,5.3875e-05,2.3669,4.3799,141.62,23.543,47.996,475.14,0.034397,41.773,0.059271,supercritical,O2,C7782447,oxygen,154.58,50.43,13.6,0.07352941176470588,1.6,7.409081895697006,0.0007327
247.33,375.01,18600.0,5.3763e-05,2.3615,4.3776,141.58,23.546,47.972,476.14,0.033905,41.869,0.059394,supercritical,O2,C7782447,oxygen,154.58,50.43,13.6,0.07352941176470588,1.6,7.436248264921674,0.0007311768
247.33,376.38,18638.0,5.3653e-05,2.3561,4.3754,141.54,23.55,47.947,477.13,0.033418,41.965,0.059517,supercritical,O2,C7782447,oxygen,154.58,50.43,13.6,0.07352941176470588,1.6,7.463414634146341,0.0007296808
247.33,377.74,18676.0,5.3544e-05,2.3507,4.3733,141.51,23.554,47.922,478.12,0.032935,42.061,0.05964,supercritical,O2,C7782447,oxygen,154.58,50.43,13.6,0.07352941176470588,1.6,7.490382708705136,0.0007281984
247.33,379.11,18714.0,5.3435e-05,2.3454,4.3711,141.47,23.557,47.897,479.1,0.032456,42.156,0.059763,supercritical,O2,C7782447,oxygen,154.58,50.43,13.6,0.07352941176470588,1.6,7.517549077929804,0.000726716
247.33,380.47,18752.0,5.3328e-05,2.3401,4.369,141.43,23.561,47.873,480.09,0.031981,42.251,0.059885,supercritical,O2,C7782447,oxygen,154.58,50.43,13.6,0.07352941176470588,1.6,7.5445171524885986,0.0007252608
247.33,381.83,18789.0,5.3221e-05,2.3348,4.3669,141.39,23.564,47.848,481.07,0.03151,42.347,0.060007,supercritical,O2,C7782447,oxygen,154.58,50.43,13.6,0.07352941176470588,1.6,7.5714852270473925,0.0007238056
247.33,383.2,18827.0,5.3116e-05,2.3295,4.3649,141.35,23.568,47.823,482.06,0.031043,42.442,0.060129,supercritical,O2,C7782447,oxygen,154.58,50.43,13.6,0.07352941176470588,1.6,7.59865159627206,0.0007223776
247.33,384.56,18864.0,5.3011e-05,2.3243,4.3629,141.32,23.571,47.798,483.04,0.03058,42.537,0.060251,supercritical,O2,C7782447,oxygen,154.58,50.43,13.6,0.07352941176470588,1.6,7.625619670830854,0.0007209495999999999
247.33,385.93,18901.0,5.2907e-05,2.3191,4.3609,141.28,23.575,47.774,484.02,0.030121,42.631,0.060372,supercritical,O2,C7782447,oxygen,154.58,50.43,13.6,0.07352941176470588,1.6,7.652786040055522,0.0007195352
247.33,387.3,18938.0,5.2805e-05,2.3139,4.359,141.24,23.578,47.749,485.0,0.029666,42.726,0.060494,supercritical,O2,C7782447,oxygen,154.58,50.43,13.6,0.07352941176470588,1.6,7.67995240928019,0.0007181479999999999
247.33,388.66,18974.0,5.2703e-05,2.3087,4.357,141.21,23.582,47.725,485.97,0.029214,42.82,0.060615,supercritical,O2,C7782447,oxygen,154.58,50.43,13.6,0.07352941176470588,1.6,7.706920483838985,0.0007167607999999999