Temperature (K),Pressure (bar),Density (mol/m3),Volume (m3/mol),Internal Energy (kJ/mol),Enthalpy (kJ/mol),Entropy (J/mol*K),Cv (J/mol*K),Cp (J/mol*K),Sound Spd. (m/s),Joule-Thomson (K/bar),Viscosity (uPa*s),Therm. Cond. (W/m*K),Phase,substance,substance_id,substance_name,Tc,Pc,rhoc,Vmc,Tr,Pr,Vmr
1294.0,1406.5,13217.0,7.5658e-05,67.885,78.527,116.0,40.961,58.556,955.71,0.052507,57.844,0.29737,supercritical,H2O,C7732185,water,647.0,220.64,17.9,0.0558659217877095,2.0,6.3746374184191446,0.0013542781999999998
1294.0,1413.9,13281.0,7.5295e-05,67.858,78.504,115.94,40.978,58.602,956.71,0.052217,57.898,0.29821,supercritical,H2O,C7732185,water,647.0,220.64,17.9,0.0558659217877095,2.0,6.408176214648297,0.0013477805
1294.0,1421.2,13345.0,7.4935e-05,67.832,78.482,115.88,40.994,58.648,957.7,0.051928,57.951,0.29905,supercritical,H2O,C7732185,water,647.0,220.64,17.9,0.0558659217877095,2.0,6.441261783901378,0.0013413365
1294.0,1428.6,13408.0,7.458e-05,67.805,78.459,115.82,41.01,58.694,958.71,0.05164,58.004,0.29989,supercritical,H2O,C7732185,water,647.0,220.64,17.9,0.0558659217877095,2.0,6.4748005801305295,0.0013349819999999997
1294.0,1435.9,13472.0,7.4229e-05,67.778,78.437,115.76,41.026,58.74,959.71,0.051352,58.057,0.30072,supercritical,H2O,C7732185,water,647.0,220.64,17.9,0.0558659217877095,2.0,6.507886149383612,0.0013286990999999998
1294.0,1443.3,13535.0,7.3881e-05,67.752,78.415,115.7,41.042,58.785,960.72,0.051066,58.11,0.30156,supercritical,H2O,C7732185,water,647.0,220.64,17.9,0.0558659217877095,2.0,6.541424945612763,0.0013224699
1294.0,1450.6,13598.0,7.3538e-05,67.725,78.393,115.64,41.058,58.83,961.73,0.050781,58.163,0.30239,supercritical,H2O,C7732185,water,647.0,220.64,17.9,0.0558659217877095,2.0,6.574510514865845,0.0013163302
1294.0,1458.0,13662.0,7.3198e-05,67.699,78.371,115.58,41.074,58.874,962.75,0.050497,58.216,0.30323,supercritical,H2O,C7732185,water,647.0,220.64,17.9,0.0558659217877095,2.0,6.608049311094997,0.0013102442
1294.0,1465.3,13725.0,7.2862e-05,67.673,78.349,115.52,41.09,58.919,963.77,0.050213,58.269,0.30406,supercritical,H2O,C7732185,water,647.0,220.64,17.9,0.0558659217877095,2.0,6.641134880348078,0.0013042298
1294.0,1472.7,13788.0,7.2529e-05,67.646,78.328,115.47,41.105,58.963,964.79,0.049931,58.322,0.30489,supercritical,H2O,C7732185,water,647.0,220.64,17.9,0.0558659217877095,2.0,6.67467367657723,0.0012982691
1294.0,1480.0,13850.0,7.22e-05,67.62,78.306,115.41,41.121,59.006,965.82,0.04965,58.375,0.30572,supercritical,H2O,C7732185,water,647.0,220.64,17.9,0.0558659217877095,2.0,6.707759245830312,0.00129238
1294.0,1487.4,13913.0,7.1875e-05,67.594,78.285,115.35,41.137,59.049,966.85,0.04937,58.428,0.30654,supercritical,H2O,C7732185,water,647.0,220.64,17.9,0.0558659217877095,2.0,6.741298042059464,0.0012865625
1294.0,1494.7,13976.0,7.1553e-05,67.568,78.263,115.29,41.152,59.092,967.88,0.04909,58.481,0.30737,supercritical,H2O,C7732185,water,647.0,220.64,17.9,0.0558659217877095,2.0,6.774383611312546,0.0012807987
1294.0,1502.1,14038.0,7.1235e-05,67.542,78.242,115.24,41.168,59.135,968.92,0.048812,58.534,0.30819,supercritical,H2O,C7732185,water,647.0,220.64,17.9,0.0558659217877095,2.0,6.807922407541697,0.0012751065
1294.0,1509.4,14100.0,7.092e-05,67.516,78.221,115.18,41.183,59.177,969.96,0.048534,58.587,0.30902,supercritical,H2O,C7732185,water,647.0,220.64,17.9,0.0558659217877095,2.0,6.84100797679478,0.001269468
1294.0,1516.8,14163.0,7.0608e-05,67.49,78.2,115.12,41.199,59.219,971.0,0.048258,58.64,0.30984,supercritical,H2O,C7732185,water,647.0,220.64,17.9,0.0558659217877095,2.0,6.874546773023931,0.0012638832
1294.0,1524.1,14225.0,7.03e-05,67.464,78.179,115.07,41.214,59.261,972.05,0.047983,58.693,0.31066,supercritical,H2O,C7732185,water,647.0,220.64,17.9,0.0558659217877095,2.0,6.9076323422770125,0.00125837
1294.0,1531.5,14287.0,6.9995e-05,67.439,78.158,115.01,41.229,59.302,973.1,0.047708,58.746,0.31148,supercritical,H2O,C7732185,water,647.0,220.64,17.9,0.0558659217877095,2.0,6.9411711385061645,0.0012529104999999998
1294.0,1538.8,14349.0,6.9693e-05,67.413,78.137,114.96,41.245,59.343,974.16,0.047435,58.799,0.31229,supercritical,H2O,C7732185,water,647.0,220.64,17.9,0.0558659217877095,2.0,6.974256707759246,0.0012475047
1294.0,1546.1,14410.0,6.9394e-05,67.387,78.117,114.9,41.26,59.383,975.21,0.047162,58.852,0.31311,supercritical,H2O,C7732185,water,647.0,220.64,17.9,0.0558659217877095,2.0,7.007342277012328,0.0012421525999999998
1294.0,1553.5,14472.0,6.9098e-05,67.362,78.096,114.85,41.275,59.424,976.27,0.046891,58.905,0.31392,supercritical,H2O,C7732185,water,647.0,220.64,17.9,0.0558659217877095,2.0,7.04088107324148,0.0012368541999999998
1294.0,1560.8,14534.0,6.8806e-05,67.336,78.076,114.79,41.29,59.464,977.34,0.046621,58.958,0.31474,supercritical,H2O,C7732185,water,647.0,220.64,17.9,0.0558659217877095,2.0,7.073966642494561,0.0012316274
1294.0,1568.2,14595.0,6.8516e-05,67.311,78.055,114.74,41.305,59.503,978.41,0.046351,59.01,0.31555,supercritical,H2O,C7732185,water,647.0,220.64,17.9,0.0558659217877095,2.0,7.107505438723713,0.0012264364
1294.0,1575.5,14656.0,6.8229e-05,67.285,78.035,114.68,41.32,59.543,979.48,0.046083,59.063,0.31636,supercritical,H2O,C7732185,water,647.0,220.64,17.9,0.0558659217877095,2.0,7.140591007976795,0.0012212991
1294.0,1582.9,14718.0,6.7945e-05,67.26,78.015,114.63,41.335,59.582,980.55,0.045815,59.116,0.31717,supercritical,H2O,C7732185,water,647.0,220.64,17.9,0.0558659217877095,2.0,7.174129804205947,0.0012162155
1294.0,1590.2,14779.0,6.7665e-05,67.235,77.995,114.57,41.349,59.62,981.63,0.045548,59.169,0.31797,supercritical,H2O,C7732185,water,647.0,220.64,17.9,0.0558659217877095,2.0,7.207215373459029,0.0012112034999999998
1294.0,1597.6,14840.0,6.7387e-05,67.209,77.975,114.52,41.364,59.659,982.71,0.045283,59.222,0.31878,supercritical,H2O,C7732185,water,647.0,220.64,17.9,0.0558659217877095,2.0,7.24075416968818,0.0012062273
1294.0,1604.9,14901.0,6.7111e-05,67.184,77.955,114.47,41.379,59.697,983.8,0.045018,59.274,0.31958,supercritical,H2O,C7732185,water,647.0,220.64,17.9,0.0558659217877095,2.0,7.273839738941263,0.0012012868999999999
1294.0,1612.3,14961.0,6.6839e-05,67.159,77.936,114.41,41.393,59.735,984.89,0.044755,59.327,0.32038,supercritical,H2O,C7732185,water,647.0,220.64,17.9,0.0558659217877095,2.0,7.307378535170414,0.0011964181
1294.0,1619.6,15022.0,6.6569e-05,67.134,77.916,114.36,41.408,59.772,985.98,0.044492,59.38,0.32118,supercritical,H2O,C7732185,water,647.0,220.64,17.9,0.0558659217877095,2.0,7.3404641044234955,0.0011915851
1294.0,1627.0,15082.0,6.6302e-05,67.109,77.896,114.31,41.423,59.809,987.07,0.04423,59.432,0.32198,supercritical,H2O,C7732185,water,647.0,220.64,17.9,0.0558659217877095,2.0,7.3740029006526475,0.0011868058
1294.0,1634.3,15143.0,6.6038e-05,67.084,77.877,114.25,41.437,59.846,988.17,0.04397,59.485,0.32278,supercritical,H2O,C7732185,water,647.0,220.64,17.9,0.0558659217877095,2.0,7.407088469905729,0.0011820801999999997
1294.0,1641.7,15203.0,6.5776e-05,67.059,77.858,114.2,41.451,59.882,989.27,0.04371,59.538,0.32358,supercritical,H2O,C7732185,water,647.0,220.64,17.9,0.0558659217877095,2.0,7.440627266134881,0.0011773903999999999
1294.0,1649.0,15263.0,6.5517e-05,67.035,77.839,114.15,41.466,59.919,990.37,0.043451,59.591,0.32437,supercritical,H2O,C7732185,water,647.0,220.64,17.9,0.0558659217877095,2.0,7.473712835387963,0.0011727543
1294.0,1656.4,15323.0,6.526e-05,67.01,77.82,114.1,41.48,59.955,991.48,0.043194,59.643,0.32517,supercritical,H2O,C7732185,water,647.0,220.64,17.9,0.0558659217877095,2.0,7.507251631617114,0.0011681539999999998
1294.0,1663.7,15383.0,6.5006e-05,66.985,77.801,114.05,41.494,59.99,992.59,0.042937,59.696,0.32596,supercritical,H2O,C7732185,water,647.0,220.64,17.9,0.0558659217877095,2.0,7.540337200870196,0.0011636073999999998
1294.0,1671.1,15443.0,6.4754e-05,66.961,77.782,114.0,41.509,60.025,993.7,0.042681,59.748,0.32675,supercritical,H2O,C7732185,water,647.0,220.64,17.9,0.0558659217877095,2.0,7.573875997099347,0.0011590965999999999
1294.0,1678.4,15503.0,6.4505e-05,66.936,77.763,113.94,41.523,60.06,994.82,0.042426,59.801,0.32754,supercritical,H2O,C7732185,water,647.0,220.64,17.9,0.0558659217877095,2.0,7.60696156635243,0.0011546395
1294.0,1685.8,15562.0,6.4258e-05,66.912,77.744,113.89,41.537,60.095,995.93,0.042172,59.854,0.32832,supercritical,H2O,C7732185,water,647.0,220.64,17.9,0.0558659217877095,2.0,7.640500362581581,0.0011502181999999998
1294.0,1693.1,15622.0,6.4013e-05,66.887,77.726,113.84,41.551,60.129,997.06,0.04192,59.906,0.32911,supercritical,H2O,C7732185,water,647.0,220.64,17.9,0.0558659217877095,2.0,7.673585931834663,0.0011458326999999999
1294.0,1700.5,15681.0,6.3771e-05,66.863,77.707,113.79,41.565,60.163,998.18,0.041668,59.959,0.32989,supercritical,H2O,C7732185,water,647.0,220.64,17.9,0.0558659217877095,2.0,7.707124728063815,0.0011415008999999998
1294.0,1707.8,15740.0,6.3531e-05,66.839,77.689,113.74,41.579,60.197,999.31,0.041417,60.011,0.33068,supercritical,H2O,C7732185,water,647.0,220.64,17.9,0.0558659217877095,2.0,7.740210297316897,0.0011372048999999998
1294.0,1715.2,15799.0,6.3294e-05,66.815,77.671,113.69,41.592,60.231,1000.4,0.041167,60.064,0.33146,supercritical,H2O,C7732185,water,647.0,220.64,17.9,0.0558659217877095,2.0,7.773749093546049,0.0011329625999999997
1294.0,1722.5,15858.0,6.3059e-05,66.79,77.652,113.64,41.606,60.264,1001.6,0.040918,60.116,0.33224,supercritical,H2O,C7732185,water,647.0,220.64,17.9,0.0558659217877095,2.0,7.8068346627991305,0.0011287560999999999
1294.0,1729.9,15917.0,6.2825e-05,66.766,77.634,113.59,41.62,60.297,1002.7,0.04067,60.169,0.33302,supercritical,H2O,C7732185,water,647.0,220.64,17.9,0.0558659217877095,2.0,7.8403734590282825,0.0011245674999999999
1294.0,1737.2,15976.0,6.2595e-05,66.742,77.616,113.54,41.634,60.329,1003.8,0.040423,60.221,0.33379,supercritical,H2O,C7732185,water,647.0,220.64,17.9,0.0558659217877095,2.0,7.873459028281364,0.0011204505
1294.0,1744.6,16034.0,6.2366e-05,66.718,77.598,113.49,41.647,60.362,1005.0,0.040177,60.274,0.33457,supercritical,H2O,C7732185,water,647.0,220.64,17.9,0.0558659217877095,2.0,7.906997824510515,0.0011163514
1294.0,1751.9,16093.0,6.2139e-05,66.694,77.581,113.44,41.661,60.394,1006.1,0.039932,60.326,0.33534,supercritical,H2O,C7732185,water,647.0,220.64,17.9,0.0558659217877095,2.0,7.940083393763597,0.0011122881
1294.0,1759.3,16151.0,6.1915e-05,66.671,77.563,113.39,41.675,60.425,1007.3,0.039688,60.379,0.33611,supercritical,H2O,C7732185,water,647.0,220.64,17.9,0.0558659217877095,2.0,7.973622189992748,0.0011082785
1294.0,1766.6,16209.0,6.1692e-05,66.647,77.545,113.35,41.688,60.457,1008.4,0.039445,60.431,0.33688,supercritical,H2O,C7732185,water,647.0,220.64,17.9,0.0558659217877095,2.0,8.006707759245831,0.0011042868
1294.0,1773.9,16268.0,6.1472e-05,66.623,77.528,113.3,41.701,60.488,1009.6,0.039202,60.484,0.33765,supercritical,H2O,C7732185,water,647.0,220.64,17.9,0.0558659217877095,2.0,8.039793328498913,0.0011003488
1294.0,1781.3,16326.0,6.1254e-05,66.599,77.511,113.25,41.715,60.519,1010.7,0.038961,60.536,0.33842,supercritical,H2O,C7732185,water,647.0,220.64,17.9,0.0558659217877095,2.0,8.073332124728065,0.0010964465999999998
1294.0,1788.6,16383.0,6.1037e-05,66.576,77.493,113.2,41.728,60.549,1011.9,0.038721,60.589,0.33919,supercritical,H2O,C7732185,water,647.0,220.64,17.9,0.0558659217877095,2.0,8.106417693981145,0.0010925623
1294.0,1796.0,16441.0,6.0823e-05,66.552,77.476,113.15,41.742,60.579,1013.1,0.038482,60.641,0.33995,supercritical,H2O,C7732185,water,647.0,220.64,17.9,0.0558659217877095,2.0,8.139956490210297,0.0010887317
1294.0,1803.3,16499.0,6.0611e-05,66.529,77.459,113.11,41.755,60.609,1014.2,0.038243,60.693,0.34071,supercritical,H2O,C7732185,water,647.0,220.64,17.9,0.0558659217877095,2.0,8.173042059463379,0.0010849369
1294.0,1810.7,16556.0,6.04e-05,66.505,77.442,113.06,41.768,60.639,1015.4,0.038006,60.746,0.34147,supercritical,H2O,C7732185,water,647.0,220.64,17.9,0.0558659217877095,2.0,8.20658085569253,0.0010811599999999998
1294.0,1818.0,16614.0,6.0191e-05,66.482,77.425,113.01,41.781,60.669,1016.6,0.03777,60.798,0.34223,supercritical,H2O,C7732185,water,647.0,220.64,17.9,0.0558659217877095,2.0,8.239666424945613,0.0010774189
1294.0,1825.4,16671.0,5.9985e-05,66.459,77.408,112.96,41.794,60.698,1017.7,0.037534,60.851,0.34299,supercritical,H2O,C7732185,water,647.0,220.64,17.9,0.0558659217877095,2.0,8.273205221174765,0.0010737315
1294.0,1832.7,16728.0,5.978e-05,66.436,77.392,112.92,41.807,60.727,1018.9,0.0373,60.903,0.34375,supercritical,H2O,C7732185,water,647.0,220.64,17.9,0.0558659217877095,2.0,8.306290790427846,0.0010700619999999999
1294.0,1840.1,16785.0,5.9577e-05,66.412,77.375,112.87,41.82,60.755,1020.1,0.037066,60.955,0.3445,supercritical,H2O,C7732185,water,647.0,220.64,17.9,0.0558659217877095,2.0,8.339829586656998,0.0010664283
1294.0,1847.4,16842.0,5.9376e-05,66.389,77.359,112.82,41.833,60.784,1021.2,0.036834,61.008,0.34526,supercritical,H2O,C7732185,water,647.0,220.64,17.9,0.0558659217877095,2.0,8.37291515591008,0.0010628304
1294.0,1854.8,16899.0,5.9176e-05,66.366,77.342,112.78,41.846,60.812,1022.4,0.036602,61.06,0.34601,supercritical,H2O,C7732185,water,647.0,220.64,17.9,0.0558659217877095,2.0,8.406453952139232,0.0010592503999999998
1294.0,1862.1,16955.0,5.8978e-05,66.343,77.326,112.73,41.859,60.839,1023.6,0.036372,61.112,0.34676,supercritical,H2O,C7732185,water,647.0,220.64,17.9,0.0558659217877095,2.0,8.439539521392314,0.0010557061999999999
1294.0,1869.5,17012.0,5.8782e-05,66.32,77.31,112.69,41.872,60.867,1024.8,0.036142,61.165,0.34751,supercritical,H2O,C7732185,water,647.0,220.64,17.9,0.0558659217877095,2.0,8.473078317621466,0.0010521978
1294.0,1876.8,17068.0,5.8588e-05,66.298,77.294,112.64,41.884,60.894,1026.0,0.035913,61.217,0.34826,supercritical,H2O,C7732185,water,647.0,220.64,17.9,0.0558659217877095,2.0,8.506163886874548,0.0010487252
1294.0,1884.2,17125.0,5.8396e-05,66.275,77.278,112.59,41.897,60.921,1027.2,0.035686,61.269,0.349,supercritical,H2O,C7732185,water,647.0,220.64,17.9,0.0558659217877095,2.0,8.5397026831037,0.0010452884
1294.0,1891.5,17181.0,5.8205e-05,66.252,77.262,112.55,41.91,60.948,1028.4,0.035459,61.322,0.34975,supercritical,H2O,C7732185,water,647.0,220.64,17.9,0.0558659217877095,2.0,8.57278825235678,0.0010418695
1294.0,1898.9,17237.0,5.8016e-05,66.229,77.246,112.5,41.922,60.974,1029.6,0.035233,61.374,0.35049,supercritical,H2O,C7732185,water,647.0,220.64,17.9,0.0558659217877095,2.0,8.606327048585932,0.0010384864
1294.0,1906.2,17293.0,5.7828e-05,66.207,77.23,112.46,41.935,61.001,1030.8,0.035008,61.426,0.35123,supercritical,H2O,C7732185,water,647.0,220.64,17.9,0.0558659217877095,2.0,8.639412617839014,0.0010351212
1294.0,1913.6,17348.0,5.7642e-05,66.184,77.214,112.41,41.947,61.027,1032.0,0.034785,61.478,0.35198,supercritical,H2O,C7732185,water,647.0,220.64,17.9,0.0558659217877095,2.0,8.672951414068166,0.0010317918
1294.0,1920.9,17404.0,5.7458e-05,66.162,77.199,112.37,41.96,61.052,1033.2,0.034562,61.531,0.35271,supercritical,H2O,C7732185,water,647.0,220.64,17.9,0.0558659217877095,2.0,8.706036983321248,0.0010284982
1294.0,1928.3,17460.0,5.7275e-05,66.139,77.183,112.32,41.972,61.078,1034.4,0.03434,61.583,0.35345,supercritical,H2O,C7732185,water,647.0,220.64,17.9,0.0558659217877095,2.0,8.7395757795504,0.0010252225
1294.0,1935.6,17515.0,5.7094e-05,66.117,77.168,112.28,41.985,61.103,1035.6,0.034119,61.635,0.35419,supercritical,H2O,C7732185,water,647.0,220.64,17.9,0.0558659217877095,2.0,8.772661348803481,0.0010219825999999998
1294.0,1943.0,17570.0,5.6914e-05,66.095,77.153,112.24,41.997,61.128,1036.8,0.033899,61.687,0.35492,supercritical,H2O,C7732185,water,647.0,220.64,17.9,0.0558659217877095,2.0,8.806200145032633,0.0010187605999999998
1294.0,1950.3,17626.0,5.6736e-05,66.072,77.138,112.19,42.009,61.153,1038.0,0.033679,61.739,0.35565,supercritical,H2O,C7732185,water,647.0,220.64,17.9,0.0558659217877095,2.0,8.839285714285715,0.0010155744
1294.0,1957.7,17681.0,5.6559e-05,66.05,77.122,112.15,42.022,61.177,1039.2,0.033461,61.792,0.35639,supercritical,H2O,C7732185,water,647.0,220.64,17.9,0.0558659217877095,2.0,8.872824510514867,0.0010124060999999998
1294.0,1965.0,17735.0,5.6384e-05,66.028,77.107,112.1,42.034,61.201,1040.4,0.033244,61.844,0.35712,supercritical,H2O,C7732185,water,647.0,220.64,17.9,0.0558659217877095,2.0,8.90591007976795,0.0010092736
1294.0,1972.4,17790.0,5.621e-05,66.006,77.093,112.06,42.046,61.225,1041.6,0.033028,61.896,0.35785,supercritical,H2O,C7732185,water,647.0,220.64,17.9,0.0558659217877095,2.0,8.939448875997101,0.001006159
1294.0,1979.7,17845.0,5.6038e-05,65.984,77.078,112.02,42.058,61.249,1042.8,0.032813,61.948,0.35857,supercritical,H2O,C7732185,water,647.0,220.64,17.9,0.0558659217877095,2.0,8.972534445250181,0.0010030802
1294.0,1987.1,17900.0,5.5867e-05,65.962,77.063,111.97,42.07,61.273,1044.1,0.032598,62.0,0.3593,supercritical,H2O,C7732185,water,647.0,220.64,17.9,0.0558659217877095,2.0,9.006073241479333,0.0010000192999999999
1294.0,1994.4,17954.0,5.5698e-05,65.94,77.048,111.93,42.082,61.296,1045.3,0.032385,62.053,0.36002,supercritical,H2O,C7732185,water,647.0,220.64,17.9,0.0558659217877095,2.0,9.039158810732415,0.0009969942
1294.0,2001.7,18008.0,5.553e-05,65.918,77.034,111.89,42.094,61.319,1046.5,0.032172,62.105,0.36075,supercritical,H2O,C7732185,water,647.0,220.64,17.9,0.0558659217877095,2.0,9.072244379985497,0.000993987
1294.0,2009.1,18062.0,5.5363e-05,65.896,77.019,111.85,42.106,61.342,1047.7,0.031961,62.157,0.36147,supercritical,H2O,C7732185,water,647.0,220.64,17.9,0.0558659217877095,2.0,9.105783176214649,0.0009909977
1294.0,2016.4,18117.0,5.5198e-05,65.875,77.005,111.8,42.118,61.364,1049.0,0.03175,62.209,0.36219,supercritical,H2O,C7732185,water,647.0,220.64,17.9,0.0558659217877095,2.0,9.13886874546773,0.0009880442
1294.0,2023.8,18171.0,5.5034e-05,65.853,76.991,111.76,42.13,61.387,1050.2,0.031541,62.261,0.36291,supercritical,H2O,C7732185,water,647.0,220.64,17.9,0.0558659217877095,2.0,9.172407541696883,0.0009851086
1294.0,2031.1,18224.0,5.4872e-05,65.831,76.977,111.72,42.142,61.409,1051.4,0.031332,62.313,0.36362,supercritical,H2O,C7732185,water,647.0,220.64,17.9,0.0558659217877095,2.0,9.205493110949964,0.0009822087999999999
1294.0,2038.5,18278.0,5.471e-05,65.81,76.962,111.68,42.153,61.431,1052.6,0.031124,62.365,0.36434,supercritical,H2O,C7732185,water,647.0,220.64,17.9,0.0558659217877095,2.0,9.239031907179116,0.000979309
1294.0,2045.8,18332.0,5.4551e-05,65.788,76.948,111.63,42.165,61.452,1053.9,0.030917,62.418,0.36505,supercritical,H2O,C7732185,water,647.0,220.64,17.9,0.0558659217877095,2.0,9.272117476432198,0.0009764629
1294.0,2053.2,18385.0,5.4392e-05,65.767,76.935,111.59,42.177,61.474,1055.1,0.030712,62.47,0.36577,supercritical,H2O,C7732185,water,647.0,220.64,17.9,0.0558659217877095,2.0,9.305656272661349,0.0009736167999999999
1294.0,2060.5,18438.0,5.4235e-05,65.746,76.921,111.55,42.188,61.495,1056.4,0.030507,62.522,0.36648,supercritical,H2O,C7732185,water,647.0,220.64,17.9,0.0558659217877095,2.0,9.338741841914432,0.0009708064999999999
1294.0,2067.9,18492.0,5.4078e-05,65.724,76.907,111.51,42.2,61.516,1057.6,0.030303,62.574,0.36719,supercritical,H2O,C7732185,water,647.0,220.64,17.9,0.0558659217877095,2.0,9.372280638143584,0.0009679961999999999
1294.0,2075.2,18545.0,5.3924e-05,65.703,76.893,111.47,42.212,61.537,1058.8,0.0301,62.626,0.3679,supercritical,H2O,C7732185,water,647.0,220.64,17.9,0.0558659217877095,2.0,9.405366207396664,0.0009652396
1294.0,2082.6,18598.0,5.377e-05,65.682,76.88,111.43,42.223,61.558,1060.1,0.029897,62.678,0.3686,supercritical,H2O,C7732185,water,647.0,220.64,17.9,0.0558659217877095,2.0,9.438905003625816,0.000962483
1294.0,2089.9,18651.0,5.3618e-05,65.661,76.866,111.39,42.235,61.578,1061.3,0.029696,62.73,0.36931,supercritical,H2O,C7732185,water,647.0,220.64,17.9,0.0558659217877095,2.0,9.471990572878898,0.0009597621999999999
1294.0,2097.3,18703.0,5.3466e-05,65.64,76.853,111.35,42.246,61.598,1062.6,0.029496,62.782,0.37001,supercritical,H2O,C7732185,water,647.0,220.64,17.9,0.0558659217877095,2.0,9.50552936910805,0.0009570414