Temperature (K),Pressure (bar),Density (mol/m3),Volume (m3/mol),Internal Energy (kJ/mol),Enthalpy (kJ/mol),Entropy (J/mol*K),Cv (J/mol*K),Cp (J/mol*K),Sound Spd. (m/s),Joule-Thomson (K/bar),Viscosity (uPa*s),Therm. Cond. (W/m*K),Phase,substance,substance_id,substance_name,Tc,Pc,rhoc,Vmc,Tr,Pr,Vmr
139.12,653.47,33917.0,2.9484e-05,-2.5882,-0.66152,109.5,28.398,47.868,921.59,-0.036349,143.71,0.14479,liquid,O2,C7782447,oxygen,154.58,50.43,13.6,0.07352941176470588,0.9,12.95796153083482,0.0004009824
139.12,654.84,33926.0,2.9476e-05,-2.5894,-0.65915,109.49,28.402,47.859,922.14,-0.036374,143.85,0.14488,liquid,O2,C7782447,oxygen,154.58,50.43,13.6,0.07352941176470588,0.9,12.985127900059489,0.0004008736
139.12,656.2,33934.0,2.9469e-05,-2.5905,-0.65677,109.47,28.406,47.85,922.69,-0.036398,143.99,0.14497,liquid,O2,C7782447,oxygen,154.58,50.43,13.6,0.07352941176470588,0.9,13.012095974618283,0.0004007784
139.12,657.57,33942.0,2.9462e-05,-2.5917,-0.65439,109.46,28.41,47.842,923.24,-0.036423,144.13,0.14507,liquid,O2,C7782447,oxygen,154.58,50.43,13.6,0.07352941176470588,0.9,13.039262343842951,0.0004006832
139.12,658.93,33951.0,2.9454e-05,-2.5929,-0.65202,109.45,28.415,47.833,923.79,-0.036448,144.27,0.14516,liquid,O2,C7782447,oxygen,154.58,50.43,13.6,0.07352941176470588,0.9,13.066230418401744,0.0004005744
139.12,660.29,33959.0,2.9447e-05,-2.594,-0.64963,109.44,28.419,47.825,924.34,-0.036472,144.41,0.14525,liquid,O2,C7782447,oxygen,154.58,50.43,13.6,0.07352941176470588,0.9,13.09319849296054,0.0004004792
139.12,661.66,33968.0,2.944e-05,-2.5952,-0.64725,109.43,28.423,47.816,924.88,-0.036496,144.55,0.14535,liquid,O2,C7782447,oxygen,154.58,50.43,13.6,0.07352941176470588,0.9,13.120364862185207,0.000400384
139.12,663.02,33976.0,2.9433e-05,-2.5963,-0.64487,109.42,28.427,47.808,925.43,-0.036521,144.69,0.14544,liquid,O2,C7782447,oxygen,154.58,50.43,13.6,0.07352941176470588,0.9,13.147332936744002,0.0004002888
139.12,664.39,33984.0,2.9425e-05,-2.5975,-0.64249,109.4,28.431,47.8,925.98,-0.036545,144.84,0.14553,liquid,O2,C7782447,oxygen,154.58,50.43,13.6,0.07352941176470588,0.9,13.17449930596867,0.00040018
139.12,665.75,33993.0,2.9418e-05,-2.5986,-0.6401,109.39,28.435,47.791,926.52,-0.036569,144.98,0.14562,liquid,O2,C7782447,oxygen,154.58,50.43,13.6,0.07352941176470588,0.9,13.201467380527465,0.0004000848
139.12,667.12,34001.0,2.9411e-05,-2.5998,-0.63772,109.38,28.439,47.783,927.07,-0.036593,145.12,0.14572,liquid,O2,C7782447,oxygen,154.58,50.43,13.6,0.07352941176470588,0.9,13.228633749752133,0.0003999896
139.12,668.49,34009.0,2.9404e-05,-2.6009,-0.63533,109.37,28.443,47.775,927.61,-0.036617,145.26,0.14581,liquid,O2,C7782447,oxygen,154.58,50.43,13.6,0.07352941176470588,0.9,13.2558001189768,0.00039989439999999995
139.12,669.85,34018.0,2.9396e-05,-2.6021,-0.63294,109.36,28.447,47.766,928.16,-0.036641,145.4,0.1459,liquid,O2,C7782447,oxygen,154.58,50.43,13.6,0.07352941176470588,0.9,13.282768193535594,0.0003997856
139.12,671.22,34026.0,2.9389e-05,-2.6032,-0.63055,109.35,28.451,47.758,928.7,-0.036664,145.54,0.14599,liquid,O2,C7782447,oxygen,154.58,50.43,13.6,0.07352941176470588,0.9,13.309934562760262,0.0003996904
139.12,672.58,34034.0,2.9382e-05,-2.6043,-0.62816,109.33,28.455,47.75,929.24,-0.036688,145.68,0.14608,liquid,O2,C7782447,oxygen,154.58,50.43,13.6,0.07352941176470588,0.9,13.336902637319056,0.0003995952
139.12,673.95,34043.0,2.9375e-05,-2.6055,-0.62577,109.32,28.459,47.742,929.78,-0.036711,145.82,0.14617,liquid,O2,C7782447,oxygen,154.58,50.43,13.6,0.07352941176470588,0.9,13.364069006543724,0.00039949999999999995
139.12,675.31,34051.0,2.9368e-05,-2.6066,-0.62337,109.31,28.463,47.734,930.33,-0.036735,145.96,0.14627,liquid,O2,C7782447,oxygen,154.58,50.43,13.6,0.07352941176470588,0.9,13.391037081102517,0.0003994048
139.12,676.67,34059.0,2.9361e-05,-2.6077,-0.62098,109.3,28.467,47.726,930.87,-0.036758,146.1,0.14636,liquid,O2,C7782447,oxygen,154.58,50.43,13.6,0.07352941176470588,0.9,13.418005155661312,0.00039930959999999997
139.12,678.04,34067.0,2.9354e-05,-2.6089,-0.61859,109.29,28.471,47.718,931.41,-0.036781,146.24,0.14645,liquid,O2,C7782447,oxygen,154.58,50.43,13.6,0.07352941176470588,0.9,13.44517152488598,0.0003992144
139.12,679.4,34076.0,2.9346e-05,-2.61,-0.61619,109.28,28.475,47.71,931.95,-0.036805,146.38,0.14654,liquid,O2,C7782447,oxygen,154.58,50.43,13.6,0.07352941176470588,0.9,13.472139599444775,0.0003991056
139.12,680.77,34084.0,2.9339e-05,-2.6111,-0.61379,109.26,28.479,47.702,932.49,-0.036828,146.52,0.14663,liquid,O2,C7782447,oxygen,154.58,50.43,13.6,0.07352941176470588,0.9,13.499305968669443,0.0003990104
139.12,682.13,34092.0,2.9332e-05,-2.6123,-0.61139,109.25,28.483,47.694,933.03,-0.036851,146.66,0.14672,liquid,O2,C7782447,oxygen,154.58,50.43,13.6,0.07352941176470588,0.9,13.526274043228238,0.00039891519999999997
139.12,683.5,34100.0,2.9325e-05,-2.6134,-0.60899,109.24,28.487,47.686,933.56,-0.036874,146.8,0.14681,liquid,O2,C7782447,oxygen,154.58,50.43,13.6,0.07352941176470588,0.9,13.553440412452906,0.00039882
139.12,684.87,34108.0,2.9318e-05,-2.6145,-0.60659,109.23,28.491,47.678,934.1,-0.036896,146.94,0.1469,liquid,O2,C7782447,oxygen,154.58,50.43,13.6,0.07352941176470588,0.9,13.580606781677574,0.0003987248
139.12,686.23,34117.0,2.9311e-05,-2.6156,-0.60419,109.22,28.495,47.67,934.64,-0.036919,147.08,0.147,liquid,O2,C7782447,oxygen,154.58,50.43,13.6,0.07352941176470588,0.9,13.607574856236369,0.0003986296
139.12,687.6,34125.0,2.9304e-05,-2.6167,-0.60179,109.21,28.499,47.662,935.17,-0.036942,147.22,0.14709,liquid,O2,C7782447,oxygen,154.58,50.43,13.6,0.07352941176470588,0.9,13.634741225461037,0.0003985344
139.12,688.96,34133.0,2.9297e-05,-2.6178,-0.59938,109.2,28.503,47.654,935.71,-0.036964,147.36,0.14718,liquid,O2,C7782447,oxygen,154.58,50.43,13.6,0.07352941176470588,0.9,13.66170930001983,0.0003984392
139.12,690.33,34141.0,2.929e-05,-2.619,-0.59698,109.18,28.507,47.646,936.24,-0.036987,147.5,0.14727,liquid,O2,C7782447,oxygen,154.58,50.43,13.6,0.07352941176470588,0.9,13.688875669244498,0.00039834399999999997
139.12,691.69,34149.0,2.9283e-05,-2.6201,-0.59457,109.17,28.511,47.639,936.78,-0.037009,147.64,0.14736,liquid,O2,C7782447,oxygen,154.58,50.43,13.6,0.07352941176470588,0.9,13.715843743803292,0.0003982488
139.12,693.05,34157.0,2.9276e-05,-2.6212,-0.59217,109.16,28.515,47.631,937.31,-0.037032,147.78,0.14745,liquid,O2,C7782447,oxygen,154.58,50.43,13.6,0.07352941176470588,0.9,13.742811818362085,0.0003981536
139.12,694.42,34165.0,2.9269e-05,-2.6223,-0.58976,109.15,28.519,47.623,937.85,-0.037054,147.92,0.14754,liquid,O2,C7782447,oxygen,154.58,50.43,13.6,0.07352941176470588,0.9,13.769978187586753,0.0003980584
139.12,695.78,34174.0,2.9262e-05,-2.6234,-0.58735,109.14,28.522,47.615,938.38,-0.037076,148.06,0.14763,liquid,O2,C7782447,oxygen,154.58,50.43,13.6,0.07352941176470588,0.9,13.796946262145548,0.00039796319999999994
139.12,697.15,34182.0,2.9256e-05,-2.6245,-0.58494,109.13,28.526,47.608,938.91,-0.037098,148.2,0.14772,liquid,O2,C7782447,oxygen,154.58,50.43,13.6,0.07352941176470588,0.9,13.824112631370216,0.0003978816
139.12,698.51,34190.0,2.9249e-05,-2.6256,-0.58253,109.12,28.53,47.6,939.44,-0.03712,148.34,0.14781,liquid,O2,C7782447,oxygen,154.58,50.43,13.6,0.07352941176470588,0.9,13.85108070592901,0.0003977864
139.12,699.88,34198.0,2.9242e-05,-2.6267,-0.58011,109.1,28.534,47.592,939.97,-0.037142,148.48,0.1479,liquid,O2,C7782447,oxygen,154.58,50.43,13.6,0.07352941176470588,0.9,13.878247075153679,0.0003976912
139.12,701.25,34206.0,2.9235e-05,-2.6278,-0.5777,109.09,28.538,47.585,940.5,-0.037164,148.62,0.14799,liquid,O2,C7782447,oxygen,154.58,50.43,13.6,0.07352941176470588,0.9,13.905413444378347,0.000397596
139.12,702.61,34214.0,2.9228e-05,-2.6289,-0.57529,109.08,28.542,47.577,941.03,-0.037185,148.76,0.14808,liquid,O2,C7782447,oxygen,154.58,50.43,13.6,0.07352941176470588,0.9,13.932381518937142,0.00039750079999999996
139.12,703.98,34222.0,2.9221e-05,-2.63,-0.57287,109.07,28.546,47.57,941.56,-0.037207,148.9,0.14817,liquid,O2,C7782447,oxygen,154.58,50.43,13.6,0.07352941176470588,0.9,13.95954788816181,0.00039740559999999997
139.12,705.34,34230.0,2.9214e-05,-2.6311,-0.57046,109.06,28.55,47.562,942.09,-0.037229,149.04,0.14826,liquid,O2,C7782447,oxygen,154.58,50.43,13.6,0.07352941176470588,0.9,13.986515962720604,0.0003973104
139.12,706.71,34238.0,2.9207e-05,-2.6321,-0.56804,109.05,28.554,47.555,942.62,-0.03725,149.18,0.14835,liquid,O2,C7782447,oxygen,154.58,50.43,13.6,0.07352941176470588,0.9,14.013682331945272,0.0003972152
139.12,708.07,34246.0,2.9201e-05,-2.6332,-0.56562,109.04,28.557,47.547,943.15,-0.037271,149.32,0.14844,liquid,O2,C7782447,oxygen,154.58,50.43,13.6,0.07352941176470588,0.9,14.040650406504065,0.00039713359999999997
139.12,709.43,34254.0,2.9194e-05,-2.6343,-0.5632,109.03,28.561,47.54,943.68,-0.037293,149.45,0.14853,liquid,O2,C7782447,oxygen,154.58,50.43,13.6,0.07352941176470588,0.9,14.067618481062858,0.0003970384
139.12,710.8,34262.0,2.9187e-05,-2.6354,-0.56078,109.01,28.565,47.533,944.2,-0.037314,149.59,0.14862,liquid,O2,C7782447,oxygen,154.58,50.43,13.6,0.07352941176470588,0.9,14.094784850287526,0.0003969432
139.12,712.16,34270.0,2.918e-05,-2.6365,-0.55836,109.0,28.569,47.525,944.73,-0.037335,149.73,0.1487,liquid,O2,C7782447,oxygen,154.58,50.43,13.6,0.07352941176470588,0.9,14.121752924846321,0.000396848
139.12,713.53,34278.0,2.9173e-05,-2.6376,-0.55594,108.99,28.573,47.518,945.25,-0.037356,149.87,0.14879,liquid,O2,C7782447,oxygen,154.58,50.43,13.6,0.07352941176470588,0.9,14.14891929407099,0.0003967528
139.12,714.89,34286.0,2.9167e-05,-2.6386,-0.55351,108.98,28.577,47.51,945.78,-0.037377,150.01,0.14888,liquid,O2,C7782447,oxygen,154.58,50.43,13.6,0.07352941176470588,0.9,14.175887368629784,0.0003966712
139.12,716.26,34294.0,2.916e-05,-2.6397,-0.55109,108.97,28.581,47.503,946.3,-0.037398,150.15,0.14897,liquid,O2,C7782447,oxygen,154.58,50.43,13.6,0.07352941176470588,0.9,14.203053737854452,0.000396576
139.12,717.62,34301.0,2.9153e-05,-2.6408,-0.54866,108.96,28.584,47.496,946.83,-0.037419,150.29,0.14906,liquid,O2,C7782447,oxygen,154.58,50.43,13.6,0.07352941176470588,0.9,14.230021812413247,0.0003964808
139.12,718.99,34309.0,2.9147e-05,-2.6418,-0.54624,108.95,28.588,47.489,947.35,-0.03744,150.43,0.14915,liquid,O2,C7782447,oxygen,154.58,50.43,13.6,0.07352941176470588,0.9,14.257188181637915,0.0003963992
139.12,720.36,34317.0,2.914e-05,-2.6429,-0.54381,108.94,28.592,47.481,947.87,-0.03746,150.57,0.14924,liquid,O2,C7782447,oxygen,154.58,50.43,13.6,0.07352941176470588,0.9,14.284354550862583,0.000396304
139.12,721.72,34325.0,2.9133e-05,-2.644,-0.54138,108.92,28.596,47.474,948.4,-0.037481,150.71,0.14933,liquid,O2,C7782447,oxygen,154.58,50.43,13.6,0.07352941176470588,0.9,14.311322625421377,0.0003962088
139.12,723.09,34333.0,2.9127e-05,-2.645,-0.53895,108.91,28.6,47.467,948.92,-0.037502,150.85,0.14941,liquid,O2,C7782447,oxygen,154.58,50.43,13.6,0.07352941176470588,0.9,14.338488994646045,0.0003961272
139.12,724.45,34341.0,2.912e-05,-2.6461,-0.53652,108.9,28.604,47.46,949.44,-0.037522,150.99,0.1495,liquid,O2,C7782447,oxygen,154.58,50.43,13.6,0.07352941176470588,0.9,14.36545706920484,0.000396032
139.12,725.82,34349.0,2.9113e-05,-2.6472,-0.53409,108.89,28.607,47.453,949.96,-0.037542,151.12,0.14959,liquid,O2,C7782447,oxygen,154.58,50.43,13.6,0.07352941176470588,0.9,14.392623438429508,0.0003959368
139.12,727.18,34357.0,2.9107e-05,-2.6482,-0.53166,108.88,28.611,47.446,950.48,-0.037563,151.26,0.14968,liquid,O2,C7782447,oxygen,154.58,50.43,13.6,0.07352941176470588,0.9,14.4195915129883,0.0003958552
139.12,728.54,34364.0,2.91e-05,-2.6493,-0.52922,108.87,28.615,47.439,951.0,-0.037583,151.4,0.14977,liquid,O2,C7782447,oxygen,154.58,50.43,13.6,0.07352941176470588,0.9,14.446559587547094,0.00039576
139.12,729.91,34372.0,2.9093e-05,-2.6503,-0.52679,108.86,28.619,47.432,951.52,-0.037603,151.54,0.14985,liquid,O2,C7782447,oxygen,154.58,50.43,13.6,0.07352941176470588,0.9,14.473725956771762,0.0003956648
139.12,731.27,34380.0,2.9087e-05,-2.6514,-0.52435,108.85,28.622,47.425,952.04,-0.037623,151.68,0.14994,liquid,O2,C7782447,oxygen,154.58,50.43,13.6,0.07352941176470588,0.9,14.500694031330557,0.0003955832
139.12,732.64,34388.0,2.908e-05,-2.6524,-0.52192,108.84,28.626,47.418,952.56,-0.037643,151.82,0.15003,liquid,O2,C7782447,oxygen,154.58,50.43,13.6,0.07352941176470588,0.9,14.527860400555225,0.000395488
139.12,734.0,34396.0,2.9074e-05,-2.6535,-0.51948,108.82,28.63,47.411,953.07,-0.037663,151.96,0.15012,liquid,O2,C7782447,oxygen,154.58,50.43,13.6,0.07352941176470588,0.9,14.55482847511402,0.0003954064
139.12,735.37,34403.0,2.9067e-05,-2.6545,-0.51704,108.81,28.634,47.404,953.59,-0.037683,152.1,0.15021,liquid,O2,C7782447,oxygen,154.58,50.43,13.6,0.07352941176470588,0.9,14.581994844338688,0.0003953112
139.12,736.74,34411.0,2.906e-05,-2.6556,-0.5146,108.8,28.638,47.397,954.11,-0.037703,152.23,0.15029,liquid,O2,C7782447,oxygen,154.58,50.43,13.6,0.07352941176470588,0.9,14.609161213563356,0.000395216
139.12,738.1,34419.0,2.9054e-05,-2.6566,-0.51217,108.79,28.641,47.39,954.62,-0.037723,152.37,0.15038,liquid,O2,C7782447,oxygen,154.58,50.43,13.6,0.07352941176470588,0.9,14.63612928812215,0.0003951344
139.12,739.47,34427.0,2.9047e-05,-2.6577,-0.50972,108.78,28.645,47.383,955.14,-0.037742,152.51,0.15047,liquid,O2,C7782447,oxygen,154.58,50.43,13.6,0.07352941176470588,0.9,14.663295657346819,0.0003950392
139.12,740.83,34434.0,2.9041e-05,-2.6587,-0.50728,108.77,28.649,47.376,955.65,-0.037762,152.65,0.15056,liquid,O2,C7782447,oxygen,154.58,50.43,13.6,0.07352941176470588,0.9,14.690263731905613,0.00039495759999999997
139.12,742.2,34442.0,2.9034e-05,-2.6598,-0.50484,108.76,28.652,47.369,956.17,-0.037781,152.79,0.15064,liquid,O2,C7782447,oxygen,154.58,50.43,13.6,0.07352941176470588,0.9,14.717430101130281,0.0003948624
139.12,743.56,34450.0,2.9028e-05,-2.6608,-0.5024,108.75,28.656,47.362,956.68,-0.037801,152.93,0.15073,liquid,O2,C7782447,oxygen,154.58,50.43,13.6,0.07352941176470588,0.9,14.744398175689073,0.0003947808
139.12,744.92,34457.0,2.9021e-05,-2.6618,-0.49995,108.74,28.66,47.356,957.19,-0.03782,153.07,0.15082,liquid,O2,C7782447,oxygen,154.58,50.43,13.6,0.07352941176470588,0.9,14.771366250247867,0.00039468559999999997
139.12,746.29,34465.0,2.9015e-05,-2.6629,-0.49751,108.73,28.664,47.349,957.71,-0.037839,153.2,0.1509,liquid,O2,C7782447,oxygen,154.58,50.43,13.6,0.07352941176470588,0.9,14.798532619472535,0.00039460399999999995
139.12,747.65,34473.0,2.9008e-05,-2.6639,-0.49506,108.72,28.667,47.342,958.22,-0.037859,153.34,0.15099,liquid,O2,C7782447,oxygen,154.58,50.43,13.6,0.07352941176470588,0.9,14.82550069403133,0.0003945088
139.12,749.02,34480.0,2.9002e-05,-2.6649,-0.49261,108.7,28.671,47.335,958.73,-0.037878,153.48,0.15108,liquid,O2,C7782447,oxygen,154.58,50.43,13.6,0.07352941176470588,0.9,14.852667063255998,0.0003944272
139.12,750.38,34488.0,2.8995e-05,-2.6659,-0.49017,108.69,28.675,47.329,959.24,-0.037897,153.62,0.15116,liquid,O2,C7782447,oxygen,154.58,50.43,13.6,0.07352941176470588,0.9,14.879635137814793,0.000394332
139.12,751.75,34496.0,2.8989e-05,-2.667,-0.48772,108.68,28.679,47.322,959.75,-0.037916,153.76,0.15125,liquid,O2,C7782447,oxygen,154.58,50.43,13.6,0.07352941176470588,0.9,14.90680150703946,0.0003942504
139.12,753.12,34503.0,2.8983e-05,-2.668,-0.48527,108.67,28.682,47.315,960.27,-0.037935,153.9,0.15134,liquid,O2,C7782447,oxygen,154.58,50.43,13.6,0.07352941176470588,0.9,14.933967876264129,0.00039416879999999997
139.12,754.48,34511.0,2.8976e-05,-2.669,-0.48282,108.66,28.686,47.309,960.78,-0.037954,154.03,0.15142,liquid,O2,C7782447,oxygen,154.58,50.43,13.6,0.07352941176470588,0.9,14.960935950822924,0.0003940736
139.12,755.85,34519.0,2.897e-05,-2.67,-0.48037,108.65,28.69,47.302,961.28,-0.037973,154.17,0.15151,liquid,O2,C7782447,oxygen,154.58,50.43,13.6,0.07352941176470588,0.9,14.988102320047592,0.00039399199999999996
139.12,757.21,34526.0,2.8963e-05,-2.6711,-0.47791,108.64,28.693,47.296,961.79,-0.037991,154.31,0.1516,liquid,O2,C7782447,oxygen,154.58,50.43,13.6,0.07352941176470588,0.9,15.015070394606386,0.00039389679999999997
139.12,758.58,34534.0,2.8957e-05,-2.6721,-0.47546,108.63,28.697,47.289,962.3,-0.03801,154.45,0.15168,liquid,O2,C7782447,oxygen,154.58,50.43,13.6,0.07352941176470588,0.9,15.042236763831054,0.0003938152
139.12,759.94,34541.0,2.8951e-05,-2.6731,-0.47301,108.62,28.701,47.283,962.81,-0.038029,154.59,0.15177,liquid,O2,C7782447,oxygen,154.58,50.43,13.6,0.07352941176470588,0.9,15.06920483838985,0.0003937336
139.12,761.3,34549.0,2.8944e-05,-2.6741,-0.47055,108.61,28.704,47.276,963.32,-0.038047,154.72,0.15185,liquid,O2,C7782447,oxygen,154.58,50.43,13.6,0.07352941176470588,0.9,15.09617291294864,0.0003936384
139.12,762.67,34557.0,2.8938e-05,-2.6751,-0.4681,108.6,28.708,47.269,963.82,-0.038066,154.86,0.15194,liquid,O2,C7782447,oxygen,154.58,50.43,13.6,0.07352941176470588,0.9,15.123339282173308,0.0003935568
139.12,764.03,34564.0,2.8932e-05,-2.6761,-0.46564,108.59,28.712,47.263,964.33,-0.038084,155.0,0.15203,liquid,O2,C7782447,oxygen,154.58,50.43,13.6,0.07352941176470588,0.9,15.150307356732103,0.00039347519999999997
139.12,765.4,34572.0,2.8925e-05,-2.6771,-0.46318,108.58,28.715,47.257,964.84,-0.038102,155.14,0.15211,liquid,O2,C7782447,oxygen,154.58,50.43,13.6,0.07352941176470588,0.9,15.177473725956771,0.00039338
139.12,766.76,34579.0,2.8919e-05,-2.6781,-0.46072,108.56,28.719,47.25,965.34,-0.038121,155.28,0.1522,liquid,O2,C7782447,oxygen,154.58,50.43,13.6,0.07352941176470588,0.9,15.204441800515566,0.00039329839999999996
139.12,768.13,34587.0,2.8913e-05,-2.6791,-0.45827,108.55,28.723,47.244,965.85,-0.038139,155.41,0.15228,liquid,O2,C7782447,oxygen,154.58,50.43,13.6,0.07352941176470588,0.9,15.231608169740234,0.0003932168
139.12,769.5,34594.0,2.8907e-05,-2.6801,-0.45581,108.54,28.726,47.237,966.35,-0.038157,155.55,0.15237,liquid,O2,C7782447,oxygen,154.58,50.43,13.6,0.07352941176470588,0.9,15.258774538964902,0.0003931352
139.12,770.86,34602.0,2.89e-05,-2.6812,-0.45334,108.53,28.73,47.231,966.86,-0.038175,155.69,0.15245,liquid,O2,C7782447,oxygen,154.58,50.43,13.6,0.07352941176470588,0.9,15.285742613523697,0.00039304
139.12,772.23,34609.0,2.8894e-05,-2.6822,-0.45088,108.52,28.733,47.225,967.36,-0.038193,155.83,0.15254,liquid,O2,C7782447,oxygen,154.58,50.43,13.6,0.07352941176470588,0.9,15.312908982748365,0.00039295840000000003
139.12,773.59,34617.0,2.8888e-05,-2.6831,-0.44842,108.51,28.737,47.218,967.86,-0.038211,155.96,0.15263,liquid,O2,C7782447,oxygen,154.58,50.43,13.6,0.07352941176470588,0.9,15.33987705730716,0.00039287679999999996
139.12,774.96,34624.0,2.8882e-05,-2.6841,-0.44596,108.5,28.741,47.212,968.37,-0.038229,156.1,0.15271,liquid,O2,C7782447,oxygen,154.58,50.43,13.6,0.07352941176470588,0.9,15.367043426531827,0.0003927952
139.12,776.32,34632.0,2.8875e-05,-2.6851,-0.44349,108.49,28.744,47.206,968.87,-0.038247,156.24,0.1528,liquid,O2,C7782447,oxygen,154.58,50.43,13.6,0.07352941176470588,0.9,15.394011501090622,0.0003927
139.12,777.68,34639.0,2.8869e-05,-2.6861,-0.44103,108.48,28.748,47.199,969.37,-0.038265,156.38,0.15288,liquid,O2,C7782447,oxygen,154.58,50.43,13.6,0.07352941176470588,0.9,15.420979575649413,0.0003926184
139.12,779.05,34647.0,2.8863e-05,-2.6871,-0.43856,108.47,28.751,47.193,969.87,-0.038282,156.52,0.15297,liquid,O2,C7782447,oxygen,154.58,50.43,13.6,0.07352941176470588,0.9,15.448145944874081,0.0003925368
139.12,780.41,34654.0,2.8857e-05,-2.6881,-0.4361,108.46,28.755,47.187,970.37,-0.0383,156.65,0.15305,liquid,O2,C7782447,oxygen,154.58,50.43,13.6,0.07352941176470588,0.9,15.475114019432876,0.00039245519999999996
139.12,781.78,34661.0,2.885e-05,-2.6891,-0.43363,108.45,28.759,47.181,970.87,-0.038318,156.79,0.15314,liquid,O2,C7782447,oxygen,154.58,50.43,13.6,0.07352941176470588,0.9,15.502280388657544,0.00039235999999999996
139.12,783.14,34669.0,2.8844e-05,-2.6901,-0.43116,108.44,28.762,47.175,971.37,-0.038335,156.93,0.15322,liquid,O2,C7782447,oxygen,154.58,50.43,13.6,0.07352941176470588,0.9,15.529248463216339,0.0003922784