Temperature (K),Pressure (bar),Density (mol/m3),Volume (m3/mol),Internal Energy (kJ/mol),Enthalpy (kJ/mol),Entropy (J/mol*K),Cv (J/mol*K),Cp (J/mol*K),Sound Spd. (m/s),Joule-Thomson (K/bar),Viscosity (uPa*s),Therm. Cond. (W/m*K),Phase,substance,substance_id,substance_name,Tc,Pc,rhoc,Vmc,Tr,Pr,Vmr
608.36,450.88,8523.0,0.00011733,27.284,32.574,95.27,41.409,59.645,459.69,0.061145,39.721,0.060808,supercritical,CO2,C124389,carbon-dioxide,304.18,73.8,10.6,0.09433962264150944,2.0,6.109485094850949,0.001243698
608.36,453.33,8561.0,0.00011681,27.27,32.566,95.208,41.416,59.676,460.52,0.060596,39.816,0.060936,supercritical,CO2,C124389,carbon-dioxide,304.18,73.8,10.6,0.09433962264150944,2.0,6.142682926829268,0.0012381859999999998
608.36,455.79,8598.9,0.00011629,27.256,32.557,95.146,41.423,59.708,461.35,0.060051,39.912,0.061064,supercritical,CO2,C124389,carbon-dioxide,304.18,73.8,10.6,0.09433962264150944,2.0,6.176016260162602,0.001232674
608.36,458.25,8636.7,0.00011579,27.242,32.548,95.085,41.43,59.739,462.19,0.059509,40.007,0.061193,supercritical,CO2,C124389,carbon-dioxide,304.18,73.8,10.6,0.09433962264150944,2.0,6.2093495934959355,0.0012273739999999998
608.36,460.71,8674.3,0.00011528,27.228,32.539,95.024,41.437,59.77,463.02,0.058971,40.103,0.061321,supercritical,CO2,C124389,carbon-dioxide,304.18,73.8,10.6,0.09433962264150944,2.0,6.242682926829268,0.001221968
608.36,463.17,8711.8,0.00011479,27.214,32.531,94.963,41.445,59.8,463.86,0.058436,40.199,0.061449,supercritical,CO2,C124389,carbon-dioxide,304.18,73.8,10.6,0.09433962264150944,2.0,6.276016260162602,0.001216774
608.36,465.63,8749.2,0.0001143,27.2,32.522,94.903,41.452,59.831,464.7,0.057904,40.295,0.061578,supercritical,CO2,C124389,carbon-dioxide,304.18,73.8,10.6,0.09433962264150944,2.0,6.309349593495935,0.0012115799999999999
608.36,468.08,8786.5,0.00011381,27.186,32.514,94.843,41.459,59.86,465.54,0.057376,40.392,0.061706,supercritical,CO2,C124389,carbon-dioxide,304.18,73.8,10.6,0.09433962264150944,2.0,6.342547425474255,0.0012063859999999998
608.36,470.54,8823.7,0.00011333,27.172,32.505,94.783,41.466,59.89,466.39,0.056852,40.488,0.061834,supercritical,CO2,C124389,carbon-dioxide,304.18,73.8,10.6,0.09433962264150944,2.0,6.375880758807589,0.001201298
608.36,473.0,8860.7,0.00011286,27.159,32.497,94.724,41.473,59.919,467.23,0.05633,40.585,0.061962,supercritical,CO2,C124389,carbon-dioxide,304.18,73.8,10.6,0.09433962264150944,2.0,6.409214092140922,0.001196316
608.36,475.46,8897.6,0.00011239,27.145,32.489,94.665,41.48,59.948,468.08,0.055812,40.682,0.06209,supercritical,CO2,C124389,carbon-dioxide,304.18,73.8,10.6,0.09433962264150944,2.0,6.442547425474254,0.0011913339999999998
608.36,477.92,8934.4,0.00011193,27.131,32.48,94.606,41.486,59.977,468.93,0.055298,40.779,0.062217,supercritical,CO2,C124389,carbon-dioxide,304.18,73.8,10.6,0.09433962264150944,2.0,6.475880758807588,0.0011864579999999998
608.36,480.38,8971.1,0.00011147,27.117,32.472,94.547,41.493,60.005,469.78,0.054787,40.876,0.062345,supercritical,CO2,C124389,carbon-dioxide,304.18,73.8,10.6,0.09433962264150944,2.0,6.509214092140922,0.001181582
608.36,482.83,9007.6,0.00011102,27.104,32.464,94.489,41.5,60.033,470.63,0.054279,40.974,0.062473,supercritical,CO2,C124389,carbon-dioxide,304.18,73.8,10.6,0.09433962264150944,2.0,6.542411924119241,0.001176812
608.36,485.29,9044.0,0.00011057,27.09,32.456,94.431,41.507,60.061,471.48,0.053774,41.071,0.0626,supercritical,CO2,C124389,carbon-dioxide,304.18,73.8,10.6,0.09433962264150944,2.0,6.575745257452575,0.0011720419999999999
608.36,487.75,9080.3,0.00011013,27.077,32.448,94.374,41.514,60.088,472.33,0.053273,41.169,0.062728,supercritical,CO2,C124389,carbon-dioxide,304.18,73.8,10.6,0.09433962264150944,2.0,6.609078590785908,0.001167378
608.36,490.21,9116.5,0.00010969,27.063,32.44,94.316,41.521,60.115,473.19,0.052775,41.267,0.062855,supercritical,CO2,C124389,carbon-dioxide,304.18,73.8,10.6,0.09433962264150944,2.0,6.642411924119241,0.001162714
608.36,492.67,9152.6,0.00010926,27.05,32.433,94.259,41.527,60.142,474.04,0.05228,41.365,0.062982,supercritical,CO2,C124389,carbon-dioxide,304.18,73.8,10.6,0.09433962264150944,2.0,6.675745257452575,0.0011581559999999998
608.36,495.13,9188.5,0.00010883,27.036,32.425,94.203,41.534,60.169,474.9,0.051788,41.463,0.063109,supercritical,CO2,C124389,carbon-dioxide,304.18,73.8,10.6,0.09433962264150944,2.0,6.709078590785908,0.0011535979999999998
608.36,497.58,9224.3,0.00010841,27.023,32.417,94.146,41.541,60.195,475.76,0.0513,41.562,0.063236,supercritical,CO2,C124389,carbon-dioxide,304.18,73.8,10.6,0.09433962264150944,2.0,6.742276422764228,0.001149146
608.36,500.04,9260.0,0.00010799,27.01,32.41,94.09,41.547,60.221,476.62,0.050815,41.66,0.063363,supercritical,CO2,C124389,carbon-dioxide,304.18,73.8,10.6,0.09433962264150944,2.0,6.775609756097562,0.001144694
608.36,502.5,9295.6,0.00010758,26.997,32.402,94.034,41.554,60.246,477.48,0.050333,41.759,0.06349,supercritical,CO2,C124389,carbon-dioxide,304.18,73.8,10.6,0.09433962264150944,2.0,6.808943089430895,0.0011403479999999998
608.36,504.96,9331.1,0.00010717,26.983,32.395,93.979,41.56,60.272,478.34,0.049854,41.858,0.063617,supercritical,CO2,C124389,carbon-dioxide,304.18,73.8,10.6,0.09433962264150944,2.0,6.842276422764227,0.0011360019999999999
608.36,507.42,9366.4,0.00010676,26.97,32.388,93.923,41.567,60.297,479.2,0.049378,41.957,0.063743,supercritical,CO2,C124389,carbon-dioxide,304.18,73.8,10.6,0.09433962264150944,2.0,6.875609756097561,0.001131656
608.36,509.88,9401.6,0.00010636,26.957,32.38,93.868,41.574,60.322,480.07,0.048905,42.056,0.06387,supercritical,CO2,C124389,carbon-dioxide,304.18,73.8,10.6,0.09433962264150944,2.0,6.9089430894308945,0.001127416
608.36,512.33,9436.7,0.00010597,26.944,32.373,93.813,41.58,60.346,480.93,0.048436,42.155,0.063996,supercritical,CO2,C124389,carbon-dioxide,304.18,73.8,10.6,0.09433962264150944,2.0,6.942140921409215,0.001123282
608.36,514.79,9471.7,0.00010558,26.931,32.366,93.759,41.586,60.37,481.8,0.047969,42.255,0.064122,supercritical,CO2,C124389,carbon-dioxide,304.18,73.8,10.6,0.09433962264150944,2.0,6.975474254742547,0.001119148
608.36,517.25,9506.6,0.00010519,26.918,32.359,93.705,41.593,60.394,482.66,0.047506,42.354,0.064248,supercritical,CO2,C124389,carbon-dioxide,304.18,73.8,10.6,0.09433962264150944,2.0,7.008807588075881,0.001115014
608.36,519.71,9541.4,0.00010481,26.905,32.352,93.651,41.599,60.418,483.53,0.047045,42.454,0.064374,supercritical,CO2,C124389,carbon-dioxide,304.18,73.8,10.6,0.09433962264150944,2.0,7.0421409214092145,0.0011109859999999998
608.36,522.17,9576.0,0.00010443,26.892,32.345,93.597,41.606,60.441,484.4,0.046588,42.554,0.0645,supercritical,CO2,C124389,carbon-dioxide,304.18,73.8,10.6,0.09433962264150944,2.0,7.075474254742547,0.001106958
608.36,524.63,9610.5,0.00010405,26.879,32.338,93.544,41.612,60.465,485.27,0.046134,42.654,0.064625,supercritical,CO2,C124389,carbon-dioxide,304.18,73.8,10.6,0.09433962264150944,2.0,7.108807588075881,0.0011029299999999998
608.36,527.08,9644.9,0.00010368,26.866,32.331,93.49,41.618,60.487,486.14,0.045682,42.754,0.064751,supercritical,CO2,C124389,carbon-dioxide,304.18,73.8,10.6,0.09433962264150944,2.0,7.142005420054201,0.0010990079999999998
608.36,529.54,9679.2,0.00010331,26.853,32.324,93.437,41.625,60.51,487.01,0.045234,42.854,0.064876,supercritical,CO2,C124389,carbon-dioxide,304.18,73.8,10.6,0.09433962264150944,2.0,7.175338753387534,0.0010950859999999999
608.36,532.0,9713.4,0.00010295,26.841,32.318,93.385,41.631,60.533,487.89,0.044788,42.955,0.065001,supercritical,CO2,C124389,carbon-dioxide,304.18,73.8,10.6,0.09433962264150944,2.0,7.208672086720868,0.0010912699999999999
608.36,534.46,9747.5,0.00010259,26.828,32.311,93.332,41.637,60.555,488.76,0.044345,43.055,0.065126,supercritical,CO2,C124389,carbon-dioxide,304.18,73.8,10.6,0.09433962264150944,2.0,7.242005420054201,0.001087454
608.36,536.92,9781.4,0.00010223,26.815,32.304,93.28,41.643,60.576,489.63,0.043906,43.156,0.065251,supercritical,CO2,C124389,carbon-dioxide,304.18,73.8,10.6,0.09433962264150944,2.0,7.275338753387533,0.001083638
608.36,539.38,9815.3,0.00010188,26.803,32.298,93.228,41.65,60.598,490.51,0.043469,43.256,0.065376,supercritical,CO2,C124389,carbon-dioxide,304.18,73.8,10.6,0.09433962264150944,2.0,7.308672086720867,0.0010799279999999997
608.36,541.83,9849.0,0.00010153,26.79,32.292,93.177,41.656,60.619,491.39,0.043035,43.357,0.065501,supercritical,CO2,C124389,carbon-dioxide,304.18,73.8,10.6,0.09433962264150944,2.0,7.341869918699188,0.0010762179999999999
608.36,544.29,9882.6,0.00010119,26.778,32.285,93.125,41.662,60.641,492.26,0.042603,43.458,0.065625,supercritical,CO2,C124389,carbon-dioxide,304.18,73.8,10.6,0.09433962264150944,2.0,7.37520325203252,0.001072614
608.36,546.75,9916.1,0.00010085,26.765,32.279,93.074,41.668,60.661,493.14,0.042175,43.559,0.065749,supercritical,CO2,C124389,carbon-dioxide,304.18,73.8,10.6,0.09433962264150944,2.0,7.408536585365854,0.00106901
608.36,549.21,9949.5,0.00010051,26.753,32.273,93.023,41.674,60.682,494.02,0.041749,43.66,0.065873,supercritical,CO2,C124389,carbon-dioxide,304.18,73.8,10.6,0.09433962264150944,2.0,7.4418699186991875,0.0010654059999999999
608.36,551.67,9982.7,0.00010017,26.74,32.266,92.972,41.68,60.702,494.9,0.041326,43.762,0.065997,supercritical,CO2,C124389,carbon-dioxide,304.18,73.8,10.6,0.09433962264150944,2.0,7.47520325203252,0.001061802
608.36,554.13,10016.0,9.9841e-05,26.728,32.26,92.922,41.686,60.723,495.78,0.040906,43.863,0.066121,supercritical,CO2,C124389,carbon-dioxide,304.18,73.8,10.6,0.09433962264150944,2.0,7.508536585365854,0.0010583145999999999
608.36,556.58,10049.0,9.9513e-05,26.715,32.254,92.871,41.692,60.742,496.66,0.040489,43.964,0.066245,supercritical,CO2,C124389,carbon-dioxide,304.18,73.8,10.6,0.09433962264150944,2.0,7.541734417344174,0.0010548378
608.36,559.04,10082.0,9.9188e-05,26.703,32.248,92.821,41.698,60.762,497.54,0.040074,44.066,0.066368,supercritical,CO2,C124389,carbon-dioxide,304.18,73.8,10.6,0.09433962264150944,2.0,7.575067750677507,0.0010513928
608.36,561.5,10115.0,9.8866e-05,26.691,32.242,92.772,41.704,60.782,498.42,0.039662,44.168,0.066491,supercritical,CO2,C124389,carbon-dioxide,304.18,73.8,10.6,0.09433962264150944,2.0,7.608401084010841,0.0010479795999999999
608.36,563.96,10147.0,9.8547e-05,26.679,32.236,92.722,41.71,60.801,499.3,0.039253,44.269,0.066615,supercritical,CO2,C124389,carbon-dioxide,304.18,73.8,10.6,0.09433962264150944,2.0,7.641734417344174,0.0010445982
608.36,566.42,10180.0,9.8231e-05,26.666,32.23,92.673,41.716,60.82,500.18,0.038846,44.371,0.066738,supercritical,CO2,C124389,carbon-dioxide,304.18,73.8,10.6,0.09433962264150944,2.0,7.675067750677506,0.0010412486
608.36,568.88,10213.0,9.7919e-05,26.654,32.225,92.624,41.722,60.838,501.07,0.038442,44.473,0.06686,supercritical,CO2,C124389,carbon-dioxide,304.18,73.8,10.6,0.09433962264150944,2.0,7.70840108401084,0.0010379413999999998
608.36,571.33,10245.0,9.7609e-05,26.642,32.219,92.575,41.728,60.857,501.95,0.03804,44.575,0.066983,supercritical,CO2,C124389,carbon-dioxide,304.18,73.8,10.6,0.09433962264150944,2.0,7.741598915989161,0.0010346554
608.36,573.79,10277.0,9.7303e-05,26.63,32.213,92.526,41.734,60.875,502.84,0.037641,44.677,0.067105,supercritical,CO2,C124389,carbon-dioxide,304.18,73.8,10.6,0.09433962264150944,2.0,7.774932249322493,0.0010314118
608.36,576.25,10309.0,9.6999e-05,26.618,32.208,92.477,41.74,60.893,503.72,0.037245,44.78,0.067228,supercritical,CO2,C124389,carbon-dioxide,304.18,73.8,10.6,0.09433962264150944,2.0,7.808265582655827,0.0010281893999999998
608.36,578.71,10341.0,9.6698e-05,26.606,32.202,92.429,41.746,60.911,504.61,0.036851,44.882,0.06735,supercritical,CO2,C124389,carbon-dioxide,304.18,73.8,10.6,0.09433962264150944,2.0,7.84159891598916,0.0010249988
608.36,581.17,10373.0,9.64e-05,26.594,32.197,92.381,41.751,60.929,505.49,0.03646,44.984,0.067472,supercritical,CO2,C124389,carbon-dioxide,304.18,73.8,10.6,0.09433962264150944,2.0,7.874932249322493,0.00102184
608.36,583.63,10405.0,9.6105e-05,26.582,32.191,92.333,41.757,60.946,506.38,0.036071,45.087,0.067593,supercritical,CO2,C124389,carbon-dioxide,304.18,73.8,10.6,0.09433962264150944,2.0,7.908265582655827,0.0010187129999999999
608.36,586.08,10437.0,9.5813e-05,26.57,32.186,92.286,41.763,60.963,507.26,0.035685,45.189,0.067715,supercritical,CO2,C124389,carbon-dioxide,304.18,73.8,10.6,0.09433962264150944,2.0,7.941463414634147,0.0010156178
608.36,588.54,10469.0,9.5524e-05,26.559,32.181,92.238,41.769,60.98,508.15,0.035301,45.292,0.067836,supercritical,CO2,C124389,carbon-dioxide,304.18,73.8,10.6,0.09433962264150944,2.0,7.9747967479674795,0.0010125543999999998
608.36,591.0,10500.0,9.5237e-05,26.547,32.175,92.191,41.774,60.997,509.04,0.03492,45.395,0.067958,supercritical,CO2,C124389,carbon-dioxide,304.18,73.8,10.6,0.09433962264150944,2.0,8.008130081300813,0.0010095121999999998
608.36,593.46,10532.0,9.4953e-05,26.535,32.17,92.144,41.78,61.013,509.93,0.034541,45.497,0.068079,supercritical,CO2,C124389,carbon-dioxide,304.18,73.8,10.6,0.09433962264150944,2.0,8.041463414634148,0.0010065018
608.36,595.92,10563.0,9.4671e-05,26.523,32.165,92.097,41.786,61.03,510.82,0.034164,45.6,0.0682,supercritical,CO2,C124389,carbon-dioxide,304.18,73.8,10.6,0.09433962264150944,2.0,8.07479674796748,0.0010035126
608.36,598.38,10594.0,9.4392e-05,26.512,32.16,92.051,41.791,61.046,511.7,0.03379,45.703,0.06832,supercritical,CO2,C124389,carbon-dioxide,304.18,73.8,10.6,0.09433962264150944,2.0,8.108130081300814,0.0010005551999999998
608.36,600.83,10625.0,9.4116e-05,26.5,32.155,92.004,41.797,61.062,512.59,0.033418,45.806,0.068441,supercritical,CO2,C124389,carbon-dioxide,304.18,73.8,10.6,0.09433962264150944,2.0,8.141327913279135,0.0009976296
608.36,603.29,10656.0,9.3842e-05,26.488,32.15,91.958,41.803,61.078,513.48,0.033049,45.909,0.068561,supercritical,CO2,C124389,carbon-dioxide,304.18,73.8,10.6,0.09433962264150944,2.0,8.174661246612466,0.0009947252
608.36,605.75,10687.0,9.3571e-05,26.477,32.145,91.912,41.808,61.093,514.37,0.032682,46.012,0.068681,supercritical,CO2,C124389,carbon-dioxide,304.18,73.8,10.6,0.09433962264150944,2.0,8.2079945799458,0.0009918525999999999
608.36,608.21,10718.0,9.3302e-05,26.465,32.14,91.866,41.814,61.108,515.26,0.032317,46.115,0.068801,supercritical,CO2,C124389,carbon-dioxide,304.18,73.8,10.6,0.09433962264150944,2.0,8.241327913279134,0.0009890011999999998
608.36,610.67,10749.0,9.3035e-05,26.454,32.135,91.821,41.82,61.123,516.15,0.031955,46.219,0.068921,supercritical,CO2,C124389,carbon-dioxide,304.18,73.8,10.6,0.09433962264150944,2.0,8.274661246612466,0.000986171
608.36,613.13,10779.0,9.2771e-05,26.442,32.13,91.775,41.825,61.138,517.04,0.031594,46.322,0.06904,supercritical,CO2,C124389,carbon-dioxide,304.18,73.8,10.6,0.09433962264150944,2.0,8.3079945799458,0.0009833726
608.36,615.58,10810.0,9.2509e-05,26.431,32.126,91.73,41.831,61.153,517.93,0.031237,46.425,0.06916,supercritical,CO2,C124389,carbon-dioxide,304.18,73.8,10.6,0.09433962264150944,2.0,8.341192411924121,0.0009805954
608.36,618.04,10840.0,9.225e-05,26.419,32.121,91.685,41.836,61.168,518.83,0.030881,46.529,0.069279,supercritical,CO2,C124389,carbon-dioxide,304.18,73.8,10.6,0.09433962264150944,2.0,8.374525745257452,0.00097785
608.36,620.5,10870.0,9.1993e-05,26.408,32.116,91.64,41.842,61.182,519.72,0.030527,46.632,0.069398,supercritical,CO2,C124389,carbon-dioxide,304.18,73.8,10.6,0.09433962264150944,2.0,8.407859078590786,0.0009751257999999999
608.36,622.96,10901.0,9.1738e-05,26.397,32.112,91.596,41.847,61.196,520.61,0.030176,46.735,0.069517,supercritical,CO2,C124389,carbon-dioxide,304.18,73.8,10.6,0.09433962264150944,2.0,8.44119241192412,0.0009724227999999999
608.36,625.42,10931.0,9.1486e-05,26.386,32.107,91.551,41.853,61.21,521.5,0.029827,46.839,0.069635,supercritical,CO2,C124389,carbon-dioxide,304.18,73.8,10.6,0.09433962264150944,2.0,8.474525745257452,0.0009697515999999999
608.36,627.88,10961.0,9.1235e-05,26.374,32.103,91.507,41.858,61.224,522.39,0.029481,46.943,0.069754,supercritical,CO2,C124389,carbon-dioxide,304.18,73.8,10.6,0.09433962264150944,2.0,8.507859078590787,0.000967091
608.36,630.33,10991.0,9.0987e-05,26.363,32.098,91.463,41.864,61.237,523.28,0.029136,47.046,0.069872,supercritical,CO2,C124389,carbon-dioxide,304.18,73.8,10.6,0.09433962264150944,2.0,8.541056910569107,0.0009644622
608.36,632.79,11020.0,9.0741e-05,26.352,32.094,91.419,41.869,61.251,524.18,0.028794,47.15,0.06999,supercritical,CO2,C124389,carbon-dioxide,304.18,73.8,10.6,0.09433962264150944,2.0,8.574390243902439,0.0009618545999999999
608.36,635.25,11050.0,9.0498e-05,26.341,32.09,91.375,41.874,61.264,525.07,0.028453,47.254,0.070108,supercritical,CO2,C124389,carbon-dioxide,304.18,73.8,10.6,0.09433962264150944,2.0,8.607723577235772,0.0009592787999999999
608.36,637.71,11080.0,9.0256e-05,26.33,32.085,91.332,41.88,61.277,525.96,0.028115,47.357,0.070225,supercritical,CO2,C124389,carbon-dioxide,304.18,73.8,10.6,0.09433962264150944,2.0,8.641056910569107,0.0009567135999999999
608.36,640.17,11109.0,9.0016e-05,26.319,32.081,91.289,41.885,61.29,526.86,0.027779,47.461,0.070343,supercritical,CO2,C124389,carbon-dioxide,304.18,73.8,10.6,0.09433962264150944,2.0,8.674390243902439,0.0009541695999999999
608.36,642.63,11139.0,8.9779e-05,26.308,32.077,91.245,41.891,61.303,527.75,0.027445,47.565,0.07046,supercritical,CO2,C124389,carbon-dioxide,304.18,73.8,10.6,0.09433962264150944,2.0,8.707723577235774,0.0009516573999999999
608.36,645.08,11168.0,8.9543e-05,26.297,32.073,91.202,41.896,61.315,528.64,0.027113,47.669,0.070577,supercritical,CO2,C124389,carbon-dioxide,304.18,73.8,10.6,0.09433962264150944,2.0,8.740921409214094,0.0009491558
608.36,647.54,11197.0,8.931e-05,26.286,32.069,91.16,41.901,61.327,529.53,0.026783,47.773,0.070694,supercritical,CO2,C124389,carbon-dioxide,304.18,73.8,10.6,0.09433962264150944,2.0,8.774254742547425,0.0009466859999999999
608.36,650.0,11226.0,8.9078e-05,26.275,32.065,91.117,41.907,61.34,530.43,0.026455,47.877,0.070811,supercritical,CO2,C124389,carbon-dioxide,304.18,73.8,10.6,0.09433962264150944,2.0,8.807588075880759,0.0009442268
608.36,652.46,11255.0,8.8848e-05,26.264,32.061,91.075,41.912,61.352,531.32,0.02613,47.981,0.070927,supercritical,CO2,C124389,carbon-dioxide,304.18,73.8,10.6,0.09433962264150944,2.0,8.840921409214094,0.0009417887999999999
608.36,654.92,11284.0,8.8621e-05,26.253,32.057,91.032,41.917,61.364,532.21,0.025806,48.085,0.071044,supercritical,CO2,C124389,carbon-dioxide,304.18,73.8,10.6,0.09433962264150944,2.0,8.874254742547425,0.0009393826
608.36,657.38,11313.0,8.8395e-05,26.242,32.053,90.99,41.922,61.375,533.11,0.025484,48.189,0.07116,supercritical,CO2,C124389,carbon-dioxide,304.18,73.8,10.6,0.09433962264150944,2.0,8.90758807588076,0.0009369869999999999
608.36,659.83,11342.0,8.8171e-05,26.231,32.049,90.948,41.928,61.387,534.0,0.025164,48.293,0.071276,supercritical,CO2,C124389,carbon-dioxide,304.18,73.8,10.6,0.09433962264150944,2.0,8.94078590785908,0.0009346126
608.36,662.29,11370.0,8.7949e-05,26.221,32.046,90.906,41.933,61.398,534.89,0.024847,48.397,0.071391,supercritical,CO2,C124389,carbon-dioxide,304.18,73.8,10.6,0.09433962264150944,2.0,8.974119241192412,0.0009322593999999999
608.36,664.75,11399.0,8.7729e-05,26.21,32.042,90.865,41.938,61.409,535.79,0.024531,48.502,0.071507,supercritical,CO2,C124389,carbon-dioxide,304.18,73.8,10.6,0.09433962264150944,2.0,9.007452574525745,0.0009299273999999999
608.36,667.21,11427.0,8.751e-05,26.199,32.038,90.823,41.943,61.42,536.68,0.024217,48.606,0.071622,supercritical,CO2,C124389,carbon-dioxide,304.18,73.8,10.6,0.09433962264150944,2.0,9.04078590785908,0.0009276059999999999
608.36,669.67,11456.0,8.7294e-05,26.189,32.034,90.782,41.949,61.431,537.57,0.023905,48.71,0.071737,supercritical,CO2,C124389,carbon-dioxide,304.18,73.8,10.6,0.09433962264150944,2.0,9.074119241192411,0.0009253163999999998
608.36,672.13,11484.0,8.7079e-05,26.178,32.031,90.741,41.954,61.442,538.47,0.023595,48.814,0.071852,supercritical,CO2,C124389,carbon-dioxide,304.18,73.8,10.6,0.09433962264150944,2.0,9.107452574525746,0.0009230374