Temperature (K),Pressure (bar),Density (mol/m3),Volume (m3/mol),Internal Energy (kJ/mol),Enthalpy (kJ/mol),Entropy (J/mol*K),Cv (J/mol*K),Cp (J/mol*K),Sound Spd. (m/s),Joule-Thomson (K/bar),Viscosity (uPa*s),Therm. Cond. (W/m*K),Phase,substance,substance_id,substance_name,Tc,Pc,rhoc,Vmc,Tr,Pr,Vmr
185.5,261.71,23333.0,4.2858e-05,0.18769,1.3093,129.79,24.842,57.44,497.75,0.024473,53.25,0.071909,supercritical,O2,C7782447,oxygen,154.58,50.43,13.6,0.07352941176470588,1.2,5.1895697005750545,0.0005828688
185.5,263.08,23373.0,4.2785e-05,0.18185,1.3074,129.75,24.845,57.329,499.25,0.023908,53.412,0.072086,supercritical,O2,C7782447,oxygen,154.58,50.43,13.6,0.07352941176470588,1.2,5.2167360697997225,0.0005818759999999999
185.5,264.44,23412.0,4.2713e-05,0.17607,1.3056,129.71,24.847,57.22,500.74,0.023352,53.574,0.072262,supercritical,O2,C7782447,oxygen,154.58,50.43,13.6,0.07352941176470588,1.2,5.243704144358516,0.0005808968
185.5,265.81,23451.0,4.2642e-05,0.17033,1.3038,129.67,24.85,57.111,502.22,0.022803,53.734,0.072438,supercritical,O2,C7782447,oxygen,154.58,50.43,13.6,0.07352941176470588,1.2,5.270870513583184,0.0005799312000000001
185.5,267.18,23490.0,4.2572e-05,0.16463,1.302,129.63,24.853,57.005,503.7,0.022261,53.895,0.072613,supercritical,O2,C7782447,oxygen,154.58,50.43,13.6,0.07352941176470588,1.2,5.298036882807852,0.0005789791999999999
185.5,268.54,23528.0,4.2502e-05,0.15897,1.3003,129.59,24.855,56.9,505.17,0.021728,54.055,0.072788,supercritical,O2,C7782447,oxygen,154.58,50.43,13.6,0.07352941176470588,1.2,5.325004957366647,0.0005780272
185.5,269.9,23566.0,4.2434e-05,0.15336,1.2987,129.54,24.858,56.796,506.63,0.021201,54.214,0.072962,supercritical,O2,C7782447,oxygen,154.58,50.43,13.6,0.07352941176470588,1.2,5.351973031925441,0.0005771023999999999
185.5,271.27,23604.0,4.2366e-05,0.14779,1.297,129.5,24.861,56.693,508.08,0.020682,54.373,0.073136,supercritical,O2,C7782447,oxygen,154.58,50.43,13.6,0.07352941176470588,1.2,5.379139401150109,0.0005761776
185.5,272.63,23642.0,4.2298e-05,0.14226,1.2955,129.47,24.864,56.592,509.52,0.020169,54.531,0.073309,supercritical,O2,C7782447,oxygen,154.58,50.43,13.6,0.07352941176470588,1.2,5.406107475708903,0.0005752528
185.5,274.0,23679.0,4.2232e-05,0.13678,1.2939,129.43,24.867,56.493,510.96,0.019664,54.689,0.073482,supercritical,O2,C7782447,oxygen,154.58,50.43,13.6,0.07352941176470588,1.2,5.433273844933571,0.0005743552
185.5,275.37,23716.0,4.2166e-05,0.13133,1.2924,129.39,24.87,56.394,512.39,0.019165,54.846,0.073654,supercritical,O2,C7782447,oxygen,154.58,50.43,13.6,0.07352941176470588,1.2,5.460440214158239,0.0005734576
185.5,276.73,23752.0,4.2101e-05,0.12592,1.291,129.35,24.873,56.297,513.81,0.018672,55.003,0.073825,supercritical,O2,C7782447,oxygen,154.58,50.43,13.6,0.07352941176470588,1.2,5.487408288717034,0.0005725736
185.5,278.1,23789.0,4.2036e-05,0.12055,1.2896,129.31,24.876,56.201,515.23,0.018186,55.16,0.073996,supercritical,O2,C7782447,oxygen,154.58,50.43,13.6,0.07352941176470588,1.2,5.514574657941702,0.0005716896
185.5,279.46,23825.0,4.1973e-05,0.11522,1.2882,129.27,24.879,56.106,516.64,0.017707,55.315,0.074166,supercritical,O2,C7782447,oxygen,154.58,50.43,13.6,0.07352941176470588,1.2,5.541542732500496,0.0005708328
185.5,280.82,23861.0,4.1909e-05,0.10993,1.2869,129.23,24.883,56.013,518.04,0.017234,55.471,0.074336,supercritical,O2,C7782447,oxygen,154.58,50.43,13.6,0.07352941176470588,1.2,5.56851080705929,0.0005699624
185.5,282.19,23897.0,4.1847e-05,0.10468,1.2856,129.2,24.886,55.92,519.44,0.016766,55.626,0.074506,supercritical,O2,C7782447,oxygen,154.58,50.43,13.6,0.07352941176470588,1.2,5.595677176283958,0.0005691191999999999
185.5,283.56,23932.0,4.1785e-05,0.099459,1.2843,129.16,24.889,55.829,520.82,0.016305,55.78,0.074675,supercritical,O2,C7782447,oxygen,154.58,50.43,13.6,0.07352941176470588,1.2,5.622843545508626,0.0005682759999999999
185.5,284.92,23967.0,4.1724e-05,0.094277,1.2831,129.12,24.892,55.739,522.21,0.015849,55.934,0.074843,supercritical,O2,C7782447,oxygen,154.58,50.43,13.6,0.07352941176470588,1.2,5.64981162006742,0.0005674464
185.5,286.29,24002.0,4.1663e-05,0.089131,1.2819,129.08,24.896,55.65,523.58,0.0154,56.088,0.075011,supercritical,O2,C7782447,oxygen,154.58,50.43,13.6,0.07352941176470588,1.2,5.676977989292088,0.0005666168
185.5,287.65,24037.0,4.1603e-05,0.084021,1.2807,129.05,24.899,55.562,524.95,0.014956,56.241,0.075178,supercritical,O2,C7782447,oxygen,154.58,50.43,13.6,0.07352941176470588,1.2,5.703946063850882,0.0005658008
185.5,289.01,24071.0,4.1543e-05,0.078945,1.2796,129.01,24.903,55.475,526.31,0.014517,56.393,0.075345,supercritical,O2,C7782447,oxygen,154.58,50.43,13.6,0.07352941176470588,1.2,5.730914138409677,0.0005649848
185.5,290.38,24105.0,4.1484e-05,0.073903,1.2785,128.97,24.906,55.39,527.67,0.014084,56.546,0.075512,supercritical,O2,C7782447,oxygen,154.58,50.43,13.6,0.07352941176470588,1.2,5.758080507634345,0.0005641823999999999
185.5,291.75,24139.0,4.1426e-05,0.068895,1.2775,128.94,24.91,55.305,529.02,0.013656,56.697,0.075678,supercritical,O2,C7782447,oxygen,154.58,50.43,13.6,0.07352941176470588,1.2,5.785246876859013,0.0005633936
185.5,293.11,24173.0,4.1368e-05,0.06392,1.2765,128.9,24.913,55.221,530.36,0.013233,56.849,0.075843,supercritical,O2,C7782447,oxygen,154.58,50.43,13.6,0.07352941176470588,1.2,5.812214951417807,0.0005626048
185.5,294.48,24207.0,4.1311e-05,0.058979,1.2755,128.87,24.917,55.138,531.7,0.012816,57.0,0.076008,supercritical,O2,C7782447,oxygen,154.58,50.43,13.6,0.07352941176470588,1.2,5.839381320642475,0.0005618296
185.5,295.84,24240.0,4.1254e-05,0.054069,1.2745,128.83,24.92,55.057,533.03,0.012403,57.15,0.076173,supercritical,O2,C7782447,oxygen,154.58,50.43,13.6,0.07352941176470588,1.2,5.866349395201269,0.0005610544
185.5,297.2,24273.0,4.1198e-05,0.049192,1.2736,128.79,24.924,54.976,534.35,0.011995,57.3,0.076337,supercritical,O2,C7782447,oxygen,154.58,50.43,13.6,0.07352941176470588,1.2,5.893317469760063,0.0005602927999999999
185.5,298.57,24306.0,4.1142e-05,0.044346,1.2727,128.76,24.928,54.896,535.67,0.011593,57.45,0.076501,supercritical,O2,C7782447,oxygen,154.58,50.43,13.6,0.07352941176470588,1.2,5.920483838984731,0.0005595312
185.5,299.94,24338.0,4.1087e-05,0.039532,1.2719,128.72,24.932,54.817,536.98,0.011195,57.6,0.076664,supercritical,O2,C7782447,oxygen,154.58,50.43,13.6,0.07352941176470588,1.2,5.947650208209399,0.0005587832
185.5,301.3,24371.0,4.1033e-05,0.034748,1.2711,128.69,24.935,54.739,538.29,0.010801,57.749,0.076827,supercritical,O2,C7782447,oxygen,154.58,50.43,13.6,0.07352941176470588,1.2,5.974618282768194,0.0005580488
185.5,302.67,24403.0,4.0978e-05,0.029995,1.2703,128.66,24.939,54.662,539.59,0.010412,57.897,0.076989,supercritical,O2,C7782447,oxygen,154.58,50.43,13.6,0.07352941176470588,1.2,6.001784651992862,0.0005573008
185.5,304.03,24435.0,4.0925e-05,0.025271,1.2695,128.62,24.943,54.586,540.89,0.010028,58.045,0.077151,supercritical,O2,C7782447,oxygen,154.58,50.43,13.6,0.07352941176470588,1.2,6.028752726551655,0.00055658
185.5,305.39,24467.0,4.0872e-05,0.020577,1.2688,128.59,24.947,54.51,542.18,0.0096484,58.193,0.077313,supercritical,O2,C7782447,oxygen,154.58,50.43,13.6,0.07352941176470588,1.2,6.05572080111045,0.0005558592
185.5,306.76,24498.0,4.0819e-05,0.015913,1.2681,128.55,24.951,54.436,543.46,0.0092729,58.341,0.077474,supercritical,O2,C7782447,oxygen,154.58,50.43,13.6,0.07352941176470588,1.2,6.082887170335118,0.0005551384
185.5,308.12,24530.0,4.0767e-05,0.011277,1.2674,128.52,24.954,54.362,544.74,0.0089017,58.488,0.077635,supercritical,O2,C7782447,oxygen,154.58,50.43,13.6,0.07352941176470588,1.2,6.109855244893913,0.0005544311999999999
185.5,309.49,24561.0,4.0715e-05,0.0066694,1.2668,128.49,24.958,54.289,546.01,0.0085348,58.635,0.077795,supercritical,O2,C7782447,oxygen,154.58,50.43,13.6,0.07352941176470588,1.2,6.137021614118581,0.000553724
185.5,310.86,24592.0,4.0663e-05,0.0020901,1.2661,128.45,24.962,54.217,547.28,0.0081719,58.781,0.077955,supercritical,O2,C7782447,oxygen,154.58,50.43,13.6,0.07352941176470588,1.2,6.164187983343249,0.0005530168
185.5,312.22,24623.0,4.0612e-05,-0.0024614,1.2655,128.42,24.966,54.146,548.54,0.0078131,58.927,0.078115,supercritical,O2,C7782447,oxygen,154.58,50.43,13.6,0.07352941176470588,1.2,6.191156057902043,0.0005523231999999999
185.5,313.58,24654.0,4.0562e-05,-0.0069855,1.265,128.39,24.97,54.075,549.8,0.0074584,59.073,0.078274,supercritical,O2,C7782447,oxygen,154.58,50.43,13.6,0.07352941176470588,1.2,6.2181241324608365,0.0005516432000000001
185.5,314.95,24684.0,4.0512e-05,-0.011482,1.2644,128.35,24.974,54.005,551.05,0.0071075,59.218,0.078433,supercritical,O2,C7782447,oxygen,154.58,50.43,13.6,0.07352941176470588,1.2,6.2452905016855045,0.0005509632
185.5,316.31,24714.0,4.0462e-05,-0.015953,1.2639,128.32,24.978,53.936,552.3,0.0067605,59.363,0.078591,supercritical,O2,C7782447,oxygen,154.58,50.43,13.6,0.07352941176470588,1.2,6.272258576244299,0.0005502832
185.5,317.68,24744.0,4.0413e-05,-0.020397,1.2634,128.29,24.982,53.868,553.54,0.0064173,59.508,0.078749,supercritical,O2,C7782447,oxygen,154.58,50.43,13.6,0.07352941176470588,1.2,6.299424945468967,0.0005496168
185.5,319.05,24774.0,4.0364e-05,-0.024814,1.263,128.26,24.986,53.801,554.77,0.0060778,59.653,0.078907,supercritical,O2,C7782447,oxygen,154.58,50.43,13.6,0.07352941176470588,1.2,6.326591314693635,0.0005489504
185.5,320.41,24804.0,4.0316e-05,-0.029206,1.2626,128.23,24.99,53.734,556.01,0.0057421,59.797,0.079064,supercritical,O2,C7782447,oxygen,154.58,50.43,13.6,0.07352941176470588,1.2,6.35355938925243,0.0005482976
185.5,321.77,24834.0,4.0268e-05,-0.033573,1.2621,128.19,24.994,53.668,557.23,0.0054099,59.94,0.079221,supercritical,O2,C7782447,oxygen,154.58,50.43,13.6,0.07352941176470588,1.2,6.380527463811223,0.0005476448
185.5,323.14,24863.0,4.022e-05,-0.037914,1.2618,128.16,24.999,53.602,558.45,0.0050813,60.084,0.079377,supercritical,O2,C7782447,oxygen,154.58,50.43,13.6,0.07352941176470588,1.2,6.407693833035891,0.0005469919999999999
185.5,324.5,24892.0,4.0173e-05,-0.04223,1.2614,128.13,25.003,53.537,559.67,0.0047561,60.227,0.079533,supercritical,O2,C7782447,oxygen,154.58,50.43,13.6,0.07352941176470588,1.2,6.434661907594686,0.0005463528
185.5,325.87,24922.0,4.0126e-05,-0.046522,1.2611,128.1,25.007,53.473,560.88,0.0044345,60.37,0.079689,supercritical,O2,C7782447,oxygen,154.58,50.43,13.6,0.07352941176470588,1.2,6.461828276819354,0.0005457136
185.5,327.24,24950.0,4.0079e-05,-0.050789,1.2608,128.07,25.011,53.41,562.09,0.0041162,60.512,0.079844,supercritical,O2,C7782447,oxygen,154.58,50.43,13.6,0.07352941176470588,1.2,6.488994646044022,0.0005450744
185.5,328.6,24979.0,4.0033e-05,-0.055033,1.2605,128.04,25.015,53.347,563.29,0.0038012,60.654,0.079999,supercritical,O2,C7782447,oxygen,154.58,50.43,13.6,0.07352941176470588,1.2,6.515962720602817,0.0005444488
185.5,329.96,25008.0,3.9988e-05,-0.059252,1.2602,128.01,25.019,53.285,564.48,0.0034896,60.796,0.080154,supercritical,O2,C7782447,oxygen,154.58,50.43,13.6,0.07352941176470588,1.2,6.54293079516161,0.0005438368
185.5,331.33,25036.0,3.9942e-05,-0.063448,1.26,127.98,25.024,53.223,565.68,0.0031811,60.938,0.080308,supercritical,O2,C7782447,oxygen,154.58,50.43,13.6,0.07352941176470588,1.2,6.5700971643862776,0.0005432112
185.5,332.69,25064.0,3.9897e-05,-0.067621,1.2597,127.94,25.028,53.162,566.86,0.0028759,61.079,0.080462,supercritical,O2,C7782447,oxygen,154.58,50.43,13.6,0.07352941176470588,1.2,6.597065238945072,0.0005425992
185.5,334.06,25093.0,3.9852e-05,-0.071771,1.2595,127.91,25.032,53.102,568.05,0.0025737,61.22,0.080616,supercritical,O2,C7782447,oxygen,154.58,50.43,13.6,0.07352941176470588,1.2,6.62423160816974,0.0005419871999999999
185.5,335.43,25121.0,3.9808e-05,-0.075898,1.2594,127.88,25.036,53.042,569.22,0.0022747,61.361,0.080769,supercritical,O2,C7782447,oxygen,154.58,50.43,13.6,0.07352941176470588,1.2,6.651397977394408,0.0005413888
185.5,336.79,25148.0,3.9764e-05,-0.080003,1.2592,127.85,25.041,52.983,570.4,0.0019787,61.501,0.080922,supercritical,O2,C7782447,oxygen,154.58,50.43,13.6,0.07352941176470588,1.2,6.678366051953203,0.0005407904
185.5,338.15,25176.0,3.972e-05,-0.084085,1.2591,127.82,25.045,52.925,571.57,0.0016857,61.642,0.081074,supercritical,O2,C7782447,oxygen,154.58,50.43,13.6,0.07352941176470588,1.2,6.705334126511996,0.000540192
185.5,339.52,25204.0,3.9677e-05,-0.088146,1.259,127.79,25.049,52.867,572.73,0.0013956,61.781,0.081227,supercritical,O2,C7782447,oxygen,154.58,50.43,13.6,0.07352941176470588,1.2,6.732500495736664,0.0005396072
185.5,340.88,25231.0,3.9634e-05,-0.092185,1.2589,127.76,25.054,52.809,573.89,0.0011084,61.921,0.081379,supercritical,O2,C7782447,oxygen,154.58,50.43,13.6,0.07352941176470588,1.2,6.759468570295459,0.0005390224
185.5,342.25,25258.0,3.9591e-05,-0.096202,1.2588,127.73,25.058,52.753,575.05,0.00082408,62.06,0.08153,supercritical,O2,C7782447,oxygen,154.58,50.43,13.6,0.07352941176470588,1.2,6.786634939520127,0.0005384376
185.5,343.62,25285.0,3.9549e-05,-0.1002,1.2588,127.71,25.062,52.696,576.2,0.00054257,62.199,0.081681,supercritical,O2,C7782447,oxygen,154.58,50.43,13.6,0.07352941176470588,1.2,6.813801308744795,0.0005378663999999999
185.5,344.98,25312.0,3.9507e-05,-0.10417,1.2587,127.68,25.067,52.641,577.35,0.00026384,62.338,0.081832,supercritical,O2,C7782447,oxygen,154.58,50.43,13.6,0.07352941176470588,1.2,6.84076938330359,0.0005372952
185.5,346.35,25339.0,3.9465e-05,-0.10813,1.2587,127.65,25.071,52.585,578.49,-1.217e-05,62.477,0.081983,supercritical,O2,C7782447,oxygen,154.58,50.43,13.6,0.07352941176470588,1.2,6.867935752528258,0.000536724
185.5,347.71,25366.0,3.9423e-05,-0.11206,1.2587,127.62,25.075,52.531,579.63,-0.00028549,62.615,0.082133,supercritical,O2,C7782447,oxygen,154.58,50.43,13.6,0.07352941176470588,1.2,6.894903827087051,0.0005361528
185.5,349.07,25392.0,3.9382e-05,-0.11597,1.2588,127.59,25.08,52.476,580.77,-0.00055615,62.753,0.082283,supercritical,O2,C7782447,oxygen,154.58,50.43,13.6,0.07352941176470588,1.2,6.921871901645845,0.0005355951999999999
185.5,350.44,25419.0,3.9341e-05,-0.11987,1.2588,127.56,25.084,52.423,581.9,-0.0008242,62.891,0.082433,supercritical,O2,C7782447,oxygen,154.58,50.43,13.6,0.07352941176470588,1.2,6.949038270870513,0.0005350376
185.5,351.81,25445.0,3.9301e-05,-0.12374,1.2589,127.53,25.088,52.37,583.03,-0.0010897,63.028,0.082582,supercritical,O2,C7782447,oxygen,154.58,50.43,13.6,0.07352941176470588,1.2,6.976204640095181,0.0005344936
185.5,353.17,25471.0,3.926e-05,-0.12759,1.259,127.5,25.093,52.317,584.15,-0.0013526,63.166,0.082731,supercritical,O2,C7782447,oxygen,154.58,50.43,13.6,0.07352941176470588,1.2,7.003172714653976,0.0005339359999999999
185.5,354.54,25497.0,3.922e-05,-0.13143,1.2591,127.48,25.097,52.265,585.27,-0.0016131,63.303,0.08288,supercritical,O2,C7782447,oxygen,154.58,50.43,13.6,0.07352941176470588,1.2,7.030339083878644,0.0005333919999999999
185.5,355.9,25523.0,3.9181e-05,-0.13524,1.2592,127.45,25.102,52.213,586.38,-0.001871,63.439,0.083028,supercritical,O2,C7782447,oxygen,154.58,50.43,13.6,0.07352941176470588,1.2,7.057307158437438,0.0005328616
185.5,357.26,25549.0,3.9141e-05,-0.13904,1.2593,127.42,25.106,52.162,587.49,-0.0021266,63.576,0.083176,supercritical,O2,C7782447,oxygen,154.58,50.43,13.6,0.07352941176470588,1.2,7.084275232996232,0.0005323175999999999
185.5,358.63,25574.0,3.9102e-05,-0.14281,1.2595,127.39,25.111,52.111,588.6,-0.0023797,63.712,0.083324,supercritical,O2,C7782447,oxygen,154.58,50.43,13.6,0.07352941176470588,1.2,7.1114416022209,0.0005317872
185.5,360.0,25600.0,3.9063e-05,-0.14657,1.2597,127.36,25.115,52.061,589.7,-0.0026305,63.848,0.083471,supercritical,O2,C7782447,oxygen,154.58,50.43,13.6,0.07352941176470588,1.2,7.138607971445568,0.0005312568
185.5,361.36,25625.0,3.9024e-05,-0.15031,1.2599,127.34,25.119,52.011,590.8,-0.0028789,63.984,0.083619,supercritical,O2,C7782447,oxygen,154.58,50.43,13.6,0.07352941176470588,1.2,7.165576046004363,0.0005307264
185.5,362.73,25650.0,3.8986e-05,-0.15403,1.2601,127.31,25.124,51.961,591.9,-0.0031251,64.12,0.083766,supercritical,O2,C7782447,oxygen,154.58,50.43,13.6,0.07352941176470588,1.2,7.192742415229031,0.0005302096
185.5,364.09,25675.0,3.8948e-05,-0.15773,1.2603,127.28,25.128,51.913,592.99,-0.003369,64.255,0.083912,supercritical,O2,C7782447,oxygen,154.58,50.43,13.6,0.07352941176470588,1.2,7.219710489787825,0.0005296928
185.5,365.45,25700.0,3.891e-05,-0.16142,1.2606,127.25,25.133,51.864,594.08,-0.0036106,64.39,0.084058,supercritical,O2,C7782447,oxygen,154.58,50.43,13.6,0.07352941176470588,1.2,7.2466785643466185,0.0005291759999999999
185.5,366.82,25725.0,3.8872e-05,-0.16509,1.2608,127.23,25.137,51.816,595.16,-0.0038501,64.525,0.084204,supercritical,O2,C7782447,oxygen,154.58,50.43,13.6,0.07352941176470588,1.2,7.2738449335712865,0.0005286592000000001
185.5,368.19,25750.0,3.8835e-05,-0.16873,1.2611,127.2,25.142,51.768,596.24,-0.0040874,64.66,0.08435,supercritical,O2,C7782447,oxygen,154.58,50.43,13.6,0.07352941176470588,1.2,7.3010113027959544,0.0005281559999999999
185.5,369.55,25775.0,3.8798e-05,-0.17237,1.2614,127.17,25.146,51.721,597.32,-0.0043225,64.794,0.084496,supercritical,O2,C7782447,oxygen,154.58,50.43,13.6,0.07352941176470588,1.2,7.327979377354749,0.0005276527999999999
185.5,370.92,25799.0,3.8761e-05,-0.17598,1.2617,127.15,25.151,51.674,598.4,-0.0045555,64.928,0.084641,supercritical,O2,C7782447,oxygen,154.58,50.43,13.6,0.07352941176470588,1.2,7.355145746579417,0.0005271496
185.5,372.28,25824.0,3.8724e-05,-0.17958,1.262,127.12,25.155,51.628,599.47,-0.0047864,65.062,0.084786,supercritical,O2,C7782447,oxygen,154.58,50.43,13.6,0.07352941176470588,1.2,7.382113821138211,0.0005266463999999999
185.5,373.64,25848.0,3.8688e-05,-0.18316,1.2624,127.09,25.16,51.582,600.53,-0.0050153,65.196,0.08493,supercritical,O2,C7782447,oxygen,154.58,50.43,13.6,0.07352941176470588,1.2,7.409081895697006,0.0005261568
185.5,375.01,25872.0,3.8652e-05,-0.18672,1.2628,127.07,25.164,51.536,601.59,-0.0052421,65.33,0.085075,supercritical,O2,C7782447,oxygen,154.58,50.43,13.6,0.07352941176470588,1.2,7.436248264921674,0.0005256672
185.5,376.38,25896.0,3.8616e-05,-0.19027,1.2631,127.04,25.169,51.491,602.65,-0.005467,65.463,0.085219,supercritical,O2,C7782447,oxygen,154.58,50.43,13.6,0.07352941176470588,1.2,7.463414634146341,0.0005251775999999999
185.5,377.74,25920.0,3.858e-05,-0.1938,1.2635,127.01,25.173,51.446,603.71,-0.0056898,65.596,0.085362,supercritical,O2,C7782447,oxygen,154.58,50.43,13.6,0.07352941176470588,1.2,7.490382708705136,0.0005246879999999999
185.5,379.11,25944.0,3.8544e-05,-0.19731,1.2639,126.99,25.178,51.401,604.76,-0.0059107,65.729,0.085506,supercritical,O2,C7782447,oxygen,154.58,50.43,13.6,0.07352941176470588,1.2,7.517549077929804,0.0005241984
185.5,380.47,25968.0,3.8509e-05,-0.20081,1.2643,126.96,25.182,51.357,605.81,-0.0061297,65.862,0.085649,supercritical,O2,C7782447,oxygen,154.58,50.43,13.6,0.07352941176470588,1.2,7.5445171524885986,0.0005237223999999999
185.5,381.83,25992.0,3.8474e-05,-0.20429,1.2648,126.93,25.187,51.314,606.86,-0.0063468,65.995,0.085792,supercritical,O2,C7782447,oxygen,154.58,50.43,13.6,0.07352941176470588,1.2,7.5714852270473925,0.0005232463999999999
185.5,383.2,26015.0,3.8439e-05,-0.20775,1.2652,126.91,25.191,51.27,607.9,-0.006562,66.127,0.085935,supercritical,O2,C7782447,oxygen,154.58,50.43,13.6,0.07352941176470588,1.2,7.59865159627206,0.0005227704
185.5,384.56,26039.0,3.8405e-05,-0.2112,1.2657,126.88,25.196,51.227,608.94,-0.0067753,66.259,0.086077,supercritical,O2,C7782447,oxygen,154.58,50.43,13.6,0.07352941176470588,1.2,7.625619670830854,0.000522308
185.5,385.93,26062.0,3.837e-05,-0.21464,1.2662,126.86,25.2,51.185,609.98,-0.0069868,66.391,0.086219,supercritical,O2,C7782447,oxygen,154.58,50.43,13.6,0.07352941176470588,1.2,7.652786040055522,0.000521832
185.5,387.3,26085.0,3.8336e-05,-0.21806,1.2667,126.83,25.205,51.142,611.01,-0.0071965,66.523,0.086361,supercritical,O2,C7782447,oxygen,154.58,50.43,13.6,0.07352941176470588,1.2,7.67995240928019,0.0005213696
185.5,388.66,26108.0,3.8302e-05,-0.22146,1.2672,126.81,25.209,51.1,612.04,-0.0074044,66.654,0.086503,supercritical,O2,C7782447,oxygen,154.58,50.43,13.6,0.07352941176470588,1.2,7.706920483838985,0.0005209072