Temperature (K),Pressure (bar),Density (mol/m3),Volume (m3/mol),Internal Energy (kJ/mol),Enthalpy (kJ/mol),Entropy (J/mol*K),Cv (J/mol*K),Cp (J/mol*K),Sound Spd. (m/s),Joule-Thomson (K/bar),Viscosity (uPa*s),Therm. Cond. (W/m*K),Phase,substance,substance_id,substance_name,Tc,Pc,rhoc,Vmc,Tr,Pr,Vmr
139.12,522.43,33037.0,3.0269e-05,-2.4644,-0.88307,110.72,27.974,48.874,865.38,-0.033417,129.93,0.13535,liquid,O2,C7782447,oxygen,154.58,50.43,13.6,0.07352941176470588,0.9,10.359508229228632,0.0004116584
139.12,523.79,33047.0,3.026e-05,-2.4658,-0.88084,110.71,27.979,48.861,866.01,-0.033455,130.08,0.13545,liquid,O2,C7782447,oxygen,154.58,50.43,13.6,0.07352941176470588,0.9,10.386476303787427,0.000411536
139.12,525.16,33057.0,3.0251e-05,-2.4672,-0.87861,110.69,27.984,48.849,866.63,-0.033492,130.22,0.13556,liquid,O2,C7782447,oxygen,154.58,50.43,13.6,0.07352941176470588,0.9,10.413642673012095,0.00041141359999999995
139.12,526.52,33067.0,3.0241e-05,-2.4687,-0.87638,110.68,27.988,48.836,867.25,-0.033529,130.37,0.13566,liquid,O2,C7782447,oxygen,154.58,50.43,13.6,0.07352941176470588,0.9,10.44061074757089,0.0004112776
139.12,527.89,33077.0,3.0232e-05,-2.4701,-0.87414,110.66,27.993,48.823,867.88,-0.033565,130.52,0.13576,liquid,O2,C7782447,oxygen,154.58,50.43,13.6,0.07352941176470588,0.9,10.467777116795558,0.0004111552
139.12,529.25,33087.0,3.0223e-05,-2.4715,-0.8719,110.65,27.998,48.811,868.5,-0.033602,130.66,0.13587,liquid,O2,C7782447,oxygen,154.58,50.43,13.6,0.07352941176470588,0.9,10.494745191354353,0.0004110328
139.12,530.62,33097.0,3.0214e-05,-2.4729,-0.86966,110.64,28.003,48.799,869.12,-0.033638,130.81,0.13597,liquid,O2,C7782447,oxygen,154.58,50.43,13.6,0.07352941176470588,0.9,10.52191156057902,0.0004109104
139.12,531.99,33107.0,3.0205e-05,-2.4743,-0.86742,110.62,28.007,48.786,869.73,-0.033675,130.95,0.13607,liquid,O2,C7782447,oxygen,154.58,50.43,13.6,0.07352941176470588,0.9,10.549077929803689,0.000410788
139.12,533.35,33116.0,3.0196e-05,-2.4757,-0.86518,110.61,28.012,48.774,870.35,-0.033711,131.1,0.13618,liquid,O2,C7782447,oxygen,154.58,50.43,13.6,0.07352941176470588,0.9,10.576046004362484,0.0004106656
139.12,534.72,33126.0,3.0188e-05,-2.4771,-0.86293,110.6,28.017,48.762,870.97,-0.033747,131.25,0.13628,liquid,O2,C7782447,oxygen,154.58,50.43,13.6,0.07352941176470588,0.9,10.603212373587152,0.00041055679999999997
139.12,536.08,33136.0,3.0179e-05,-2.4785,-0.86069,110.58,28.021,48.749,871.58,-0.033782,131.39,0.13638,liquid,O2,C7782447,oxygen,154.58,50.43,13.6,0.07352941176470588,0.9,10.630180448145946,0.00041043439999999997
139.12,537.45,33146.0,3.017e-05,-2.4799,-0.85844,110.57,28.026,48.737,872.2,-0.033818,131.54,0.13649,liquid,O2,C7782447,oxygen,154.58,50.43,13.6,0.07352941176470588,0.9,10.657346817370614,0.00041031199999999997
139.12,538.81,33156.0,3.0161e-05,-2.4813,-0.85619,110.56,28.031,48.725,872.81,-0.033853,131.68,0.13659,liquid,O2,C7782447,oxygen,154.58,50.43,13.6,0.07352941176470588,0.9,10.684314891929406,0.00041018960000000003
139.12,540.17,33165.0,3.0152e-05,-2.4827,-0.85393,110.54,28.035,48.713,873.43,-0.033889,131.83,0.13669,liquid,O2,C7782447,oxygen,154.58,50.43,13.6,0.07352941176470588,0.9,10.7112829664882,0.0004100672
139.12,541.54,33175.0,3.0143e-05,-2.4841,-0.85168,110.53,28.04,48.701,874.04,-0.033924,131.97,0.13679,liquid,O2,C7782447,oxygen,154.58,50.43,13.6,0.07352941176470588,0.9,10.738449335712868,0.0004099448
139.12,542.9,33185.0,3.0134e-05,-2.4854,-0.84942,110.52,28.045,48.689,874.65,-0.033959,132.12,0.1369,liquid,O2,C7782447,oxygen,154.58,50.43,13.6,0.07352941176470588,0.9,10.765417410271663,0.0004098224
139.12,544.27,33194.0,3.0126e-05,-2.4868,-0.84717,110.5,28.049,48.677,875.26,-0.033994,132.27,0.137,liquid,O2,C7782447,oxygen,154.58,50.43,13.6,0.07352941176470588,0.9,10.792583779496331,0.00040971359999999996
139.12,545.63,33204.0,3.0117e-05,-2.4882,-0.84491,110.49,28.054,48.665,875.87,-0.034028,132.41,0.1371,liquid,O2,C7782447,oxygen,154.58,50.43,13.6,0.07352941176470588,0.9,10.819551854055126,0.00040959119999999996
139.12,547.0,33214.0,3.0108e-05,-2.4896,-0.84265,110.48,28.059,48.653,876.48,-0.034063,132.56,0.1372,liquid,O2,C7782447,oxygen,154.58,50.43,13.6,0.07352941176470588,0.9,10.846718223279794,0.00040946879999999996
139.12,548.37,33223.0,3.0099e-05,-2.4909,-0.84038,110.46,28.063,48.642,877.09,-0.034097,132.7,0.1373,liquid,O2,C7782447,oxygen,154.58,50.43,13.6,0.07352941176470588,0.9,10.873884592504462,0.0004093464
139.12,549.73,33233.0,3.0091e-05,-2.4923,-0.83812,110.45,28.068,48.63,877.7,-0.034131,132.85,0.1374,liquid,O2,C7782447,oxygen,154.58,50.43,13.6,0.07352941176470588,0.9,10.900852667063257,0.0004092376
139.12,551.1,33242.0,3.0082e-05,-2.4937,-0.83585,110.44,28.072,48.618,878.3,-0.034165,132.99,0.13751,liquid,O2,C7782447,oxygen,154.58,50.43,13.6,0.07352941176470588,0.9,10.928019036287925,0.0004091152
139.12,552.46,33252.0,3.0073e-05,-2.495,-0.83358,110.42,28.077,48.607,878.91,-0.034199,133.14,0.13761,liquid,O2,C7782447,oxygen,154.58,50.43,13.6,0.07352941176470588,0.9,10.95498711084672,0.0004089928
139.12,553.83,33262.0,3.0065e-05,-2.4964,-0.83131,110.41,28.082,48.595,879.51,-0.034233,133.28,0.13771,liquid,O2,C7782447,oxygen,154.58,50.43,13.6,0.07352941176470588,0.9,10.982153480071387,0.000408884
139.12,555.19,33271.0,3.0056e-05,-2.4977,-0.82904,110.4,28.086,48.584,880.12,-0.034267,133.43,0.13781,liquid,O2,C7782447,oxygen,154.58,50.43,13.6,0.07352941176470588,0.9,11.009121554630182,0.0004087616
139.12,556.55,33281.0,3.0048e-05,-2.4991,-0.82677,110.38,28.091,48.572,880.72,-0.0343,133.57,0.13791,liquid,O2,C7782447,oxygen,154.58,50.43,13.6,0.07352941176470588,0.9,11.036089629188973,0.0004086528
139.12,557.92,33290.0,3.0039e-05,-2.5004,-0.82449,110.37,28.095,48.561,881.32,-0.034333,133.72,0.13801,liquid,O2,C7782447,oxygen,154.58,50.43,13.6,0.07352941176470588,0.9,11.063255998413641,0.0004085304
139.12,559.28,33300.0,3.003e-05,-2.5018,-0.82222,110.36,28.1,48.549,881.92,-0.034366,133.86,0.13811,liquid,O2,C7782447,oxygen,154.58,50.43,13.6,0.07352941176470588,0.9,11.090224072972436,0.00040840799999999997
139.12,560.65,33309.0,3.0022e-05,-2.5031,-0.81994,110.34,28.104,48.538,882.52,-0.034399,134.0,0.13821,liquid,O2,C7782447,oxygen,154.58,50.43,13.6,0.07352941176470588,0.9,11.117390442197104,0.0004082992
139.12,562.01,33318.0,3.0013e-05,-2.5045,-0.81766,110.33,28.109,48.527,883.12,-0.034432,134.15,0.13831,liquid,O2,C7782447,oxygen,154.58,50.43,13.6,0.07352941176470588,0.9,11.144358516755899,0.00040817679999999995
139.12,563.38,33328.0,3.0005e-05,-2.5058,-0.81538,110.32,28.114,48.516,883.72,-0.034465,134.29,0.13841,liquid,O2,C7782447,oxygen,154.58,50.43,13.6,0.07352941176470588,0.9,11.171524885980567,0.000408068
139.12,564.75,33337.0,2.9996e-05,-2.5071,-0.81309,110.31,28.118,48.504,884.32,-0.034498,134.44,0.13851,liquid,O2,C7782447,oxygen,154.58,50.43,13.6,0.07352941176470588,0.9,11.198691255205235,0.0004079456
139.12,566.11,33347.0,2.9988e-05,-2.5085,-0.81081,110.29,28.123,48.493,884.92,-0.03453,134.58,0.13861,liquid,O2,C7782447,oxygen,154.58,50.43,13.6,0.07352941176470588,0.9,11.22565932976403,0.0004078368
139.12,567.48,33356.0,2.998e-05,-2.5098,-0.80852,110.28,28.127,48.482,885.51,-0.034562,134.73,0.13871,liquid,O2,C7782447,oxygen,154.58,50.43,13.6,0.07352941176470588,0.9,11.252825698988698,0.000407728
139.12,568.84,33365.0,2.9971e-05,-2.5111,-0.80623,110.27,28.132,48.471,886.11,-0.034595,134.87,0.13881,liquid,O2,C7782447,oxygen,154.58,50.43,13.6,0.07352941176470588,0.9,11.279793773547492,0.0004076056
139.12,570.21,33375.0,2.9963e-05,-2.5124,-0.80394,110.25,28.136,48.46,886.7,-0.034627,135.02,0.13891,liquid,O2,C7782447,oxygen,154.58,50.43,13.6,0.07352941176470588,0.9,11.30696014277216,0.0004074968
139.12,571.57,33384.0,2.9954e-05,-2.5138,-0.80165,110.24,28.141,48.449,887.3,-0.034659,135.16,0.13901,liquid,O2,C7782447,oxygen,154.58,50.43,13.6,0.07352941176470588,0.9,11.333928217330955,0.0004073744
139.12,572.93,33393.0,2.9946e-05,-2.5151,-0.79936,110.23,28.145,48.438,887.89,-0.03469,135.3,0.13911,liquid,O2,C7782447,oxygen,154.58,50.43,13.6,0.07352941176470588,0.9,11.360896291889746,0.0004072656
139.12,574.3,33403.0,2.9938e-05,-2.5164,-0.79707,110.21,28.15,48.428,888.48,-0.034722,135.45,0.13921,liquid,O2,C7782447,oxygen,154.58,50.43,13.6,0.07352941176470588,0.9,11.388062661114414,0.0004071568
139.12,575.66,33412.0,2.9929e-05,-2.5177,-0.79477,110.2,28.154,48.417,889.07,-0.034753,135.59,0.13931,liquid,O2,C7782447,oxygen,154.58,50.43,13.6,0.07352941176470588,0.9,11.41503073567321,0.0004070344
139.12,577.03,33421.0,2.9921e-05,-2.519,-0.79247,110.19,28.159,48.406,889.67,-0.034785,135.74,0.13941,liquid,O2,C7782447,oxygen,154.58,50.43,13.6,0.07352941176470588,0.9,11.442197104897877,0.00040692559999999997
139.12,578.39,33431.0,2.9913e-05,-2.5203,-0.79017,110.18,28.163,48.395,890.26,-0.034816,135.88,0.13951,liquid,O2,C7782447,oxygen,154.58,50.43,13.6,0.07352941176470588,0.9,11.469165179456672,0.0004068168
139.12,579.76,33440.0,2.9904e-05,-2.5216,-0.78787,110.16,28.167,48.385,890.84,-0.034847,136.02,0.13961,liquid,O2,C7782447,oxygen,154.58,50.43,13.6,0.07352941176470588,0.9,11.49633154868134,0.0004066944
139.12,581.12,33449.0,2.9896e-05,-2.5229,-0.78557,110.15,28.172,48.374,891.43,-0.034878,136.17,0.13971,liquid,O2,C7782447,oxygen,154.58,50.43,13.6,0.07352941176470588,0.9,11.523299623240135,0.0004065856
139.12,582.49,33458.0,2.9888e-05,-2.5242,-0.78327,110.14,28.176,48.363,892.02,-0.034909,136.31,0.13981,liquid,O2,C7782447,oxygen,154.58,50.43,13.6,0.07352941176470588,0.9,11.550465992464803,0.00040647679999999996
139.12,583.86,33467.0,2.988e-05,-2.5255,-0.78096,110.12,28.181,48.353,892.61,-0.03494,136.45,0.1399,liquid,O2,C7782447,oxygen,154.58,50.43,13.6,0.07352941176470588,0.9,11.57763236168947,0.00040636799999999994
139.12,585.22,33477.0,2.9872e-05,-2.5268,-0.77865,110.11,28.185,48.342,893.19,-0.03497,136.6,0.14,liquid,O2,C7782447,oxygen,154.58,50.43,13.6,0.07352941176470588,0.9,11.604600436248266,0.00040625920000000003
139.12,586.59,33486.0,2.9863e-05,-2.5281,-0.77635,110.1,28.19,48.332,893.78,-0.035001,136.74,0.1401,liquid,O2,C7782447,oxygen,154.58,50.43,13.6,0.07352941176470588,0.9,11.631766805472934,0.0004061368
139.12,587.95,33495.0,2.9855e-05,-2.5294,-0.77404,110.09,28.194,48.322,894.36,-0.035031,136.88,0.1402,liquid,O2,C7782447,oxygen,154.58,50.43,13.6,0.07352941176470588,0.9,11.658734880031728,0.000406028
139.12,589.32,33504.0,2.9847e-05,-2.5307,-0.77173,110.07,28.198,48.311,894.95,-0.035061,137.03,0.1403,liquid,O2,C7782447,oxygen,154.58,50.43,13.6,0.07352941176470588,0.9,11.685901249256396,0.0004059192
139.12,590.68,33513.0,2.9839e-05,-2.5319,-0.76941,110.06,28.203,48.301,895.53,-0.035091,137.17,0.1404,liquid,O2,C7782447,oxygen,154.58,50.43,13.6,0.07352941176470588,0.9,11.71286932381519,0.00040581039999999997
139.12,592.04,33522.0,2.9831e-05,-2.5332,-0.7671,110.05,28.207,48.291,896.11,-0.035121,137.31,0.14049,liquid,O2,C7782447,oxygen,154.58,50.43,13.6,0.07352941176470588,0.9,11.739837398373982,0.0004057016
139.12,593.41,33531.0,2.9823e-05,-2.5345,-0.76478,110.04,28.212,48.28,896.7,-0.035151,137.46,0.14059,liquid,O2,C7782447,oxygen,154.58,50.43,13.6,0.07352941176470588,0.9,11.76700376759865,0.0004055928
139.12,594.77,33540.0,2.9815e-05,-2.5358,-0.76246,110.02,28.216,48.27,897.28,-0.035181,137.6,0.14069,liquid,O2,C7782447,oxygen,154.58,50.43,13.6,0.07352941176470588,0.9,11.793971842157445,0.000405484
139.12,596.14,33550.0,2.9807e-05,-2.537,-0.76015,110.01,28.22,48.26,897.86,-0.03521,137.74,0.14079,liquid,O2,C7782447,oxygen,154.58,50.43,13.6,0.07352941176470588,0.9,11.821138211382113,0.0004053752
139.12,597.5,33559.0,2.9799e-05,-2.5383,-0.75783,110.0,28.225,48.25,898.44,-0.03524,137.89,0.14088,liquid,O2,C7782447,oxygen,154.58,50.43,13.6,0.07352941176470588,0.9,11.848106285940908,0.0004052664
139.12,598.87,33568.0,2.9791e-05,-2.5396,-0.7555,109.99,28.229,48.24,899.01,-0.035269,138.03,0.14098,liquid,O2,C7782447,oxygen,154.58,50.43,13.6,0.07352941176470588,0.9,11.875272655165576,0.0004051576
139.12,600.24,33577.0,2.9783e-05,-2.5408,-0.75318,109.97,28.233,48.23,899.59,-0.035298,138.17,0.14108,liquid,O2,C7782447,oxygen,154.58,50.43,13.6,0.07352941176470588,0.9,11.902439024390244,0.0004050488
139.12,601.6,33586.0,2.9775e-05,-2.5421,-0.75086,109.96,28.238,48.22,900.17,-0.035327,138.32,0.14118,liquid,O2,C7782447,oxygen,154.58,50.43,13.6,0.07352941176470588,0.9,11.929407098949039,0.00040493999999999995
139.12,602.97,33595.0,2.9767e-05,-2.5434,-0.74853,109.95,28.242,48.21,900.75,-0.035356,138.46,0.14127,liquid,O2,C7782447,oxygen,154.58,50.43,13.6,0.07352941176470588,0.9,11.956573468173707,0.0004048312
139.12,604.33,33604.0,2.9759e-05,-2.5446,-0.7462,109.94,28.247,48.2,901.32,-0.035385,138.6,0.14137,liquid,O2,C7782447,oxygen,154.58,50.43,13.6,0.07352941176470588,0.9,11.983541542732501,0.0004047224
139.12,605.7,33613.0,2.9751e-05,-2.5459,-0.74387,109.92,28.251,48.19,901.9,-0.035414,138.74,0.14147,liquid,O2,C7782447,oxygen,154.58,50.43,13.6,0.07352941176470588,0.9,12.01070791195717,0.0004046136
139.12,607.06,33621.0,2.9743e-05,-2.5471,-0.74154,109.91,28.255,48.18,902.47,-0.035442,138.89,0.14156,liquid,O2,C7782447,oxygen,154.58,50.43,13.6,0.07352941176470588,0.9,12.037675986515962,0.0004045048
139.12,608.42,33630.0,2.9735e-05,-2.5484,-0.73921,109.9,28.259,48.17,903.04,-0.035471,139.03,0.14166,liquid,O2,C7782447,oxygen,154.58,50.43,13.6,0.07352941176470588,0.9,12.064644061074757,0.00040439599999999995
139.12,609.79,33639.0,2.9727e-05,-2.5496,-0.73688,109.89,28.264,48.161,903.62,-0.035499,139.17,0.14176,liquid,O2,C7782447,oxygen,154.58,50.43,13.6,0.07352941176470588,0.9,12.091810430299425,0.0004042872
139.12,611.15,33648.0,2.9719e-05,-2.5509,-0.73455,109.87,28.268,48.151,904.19,-0.035527,139.31,0.14185,liquid,O2,C7782447,oxygen,154.58,50.43,13.6,0.07352941176470588,0.9,12.118778504858218,0.0004041784
139.12,612.52,33657.0,2.9711e-05,-2.5521,-0.73221,109.86,28.272,48.141,904.76,-0.035556,139.46,0.14195,liquid,O2,C7782447,oxygen,154.58,50.43,13.6,0.07352941176470588,0.9,12.145944874082886,0.0004040696
139.12,613.88,33666.0,2.9704e-05,-2.5533,-0.72987,109.85,28.277,48.132,905.33,-0.035584,139.6,0.14205,liquid,O2,C7782447,oxygen,154.58,50.43,13.6,0.07352941176470588,0.9,12.172912948641681,0.00040397439999999995
139.12,615.25,33675.0,2.9696e-05,-2.5546,-0.72753,109.84,28.281,48.122,905.9,-0.035611,139.74,0.14214,liquid,O2,C7782447,oxygen,154.58,50.43,13.6,0.07352941176470588,0.9,12.200079317866349,0.0004038656
139.12,616.62,33684.0,2.9688e-05,-2.5558,-0.72519,109.82,28.285,48.112,906.47,-0.035639,139.88,0.14224,liquid,O2,C7782447,oxygen,154.58,50.43,13.6,0.07352941176470588,0.9,12.227245687091017,0.0004037568
139.12,617.98,33692.0,2.968e-05,-2.557,-0.72285,109.81,28.289,48.103,907.04,-0.035667,140.03,0.14233,liquid,O2,C7782447,oxygen,154.58,50.43,13.6,0.07352941176470588,0.9,12.254213761649812,0.000403648
139.12,619.35,33701.0,2.9672e-05,-2.5583,-0.72051,109.8,28.294,48.093,907.61,-0.035695,140.17,0.14243,liquid,O2,C7782447,oxygen,154.58,50.43,13.6,0.07352941176470588,0.9,12.28138013087448,0.0004035392
139.12,620.71,33710.0,2.9665e-05,-2.5595,-0.71817,109.79,28.298,48.084,908.18,-0.035722,140.31,0.14252,liquid,O2,C7782447,oxygen,154.58,50.43,13.6,0.07352941176470588,0.9,12.308348205433274,0.000403444
139.12,622.08,33719.0,2.9657e-05,-2.5607,-0.71582,109.78,28.302,48.074,908.74,-0.035749,140.45,0.14262,liquid,O2,C7782447,oxygen,154.58,50.43,13.6,0.07352941176470588,0.9,12.335514574657942,0.0004033352
139.12,623.44,33728.0,2.9649e-05,-2.5619,-0.71347,109.76,28.306,48.065,909.31,-0.035777,140.6,0.14272,liquid,O2,C7782447,oxygen,154.58,50.43,13.6,0.07352941176470588,0.9,12.362482649216737,0.0004032264
139.12,624.8,33736.0,2.9642e-05,-2.5631,-0.71113,109.75,28.311,48.056,909.87,-0.035804,140.74,0.14281,liquid,O2,C7782447,oxygen,154.58,50.43,13.6,0.07352941176470588,0.9,12.38945072377553,0.00040313119999999995
139.12,626.17,33745.0,2.9634e-05,-2.5644,-0.70878,109.74,28.315,48.046,910.44,-0.035831,140.88,0.14291,liquid,O2,C7782447,oxygen,154.58,50.43,13.6,0.07352941176470588,0.9,12.416617093000198,0.0004030224
139.12,627.53,33754.0,2.9626e-05,-2.5656,-0.70643,109.73,28.319,48.037,911.0,-0.035858,141.02,0.143,liquid,O2,C7782447,oxygen,154.58,50.43,13.6,0.07352941176470588,0.9,12.443585167558993,0.0004029136
139.12,628.9,33763.0,2.9619e-05,-2.5668,-0.70407,109.71,28.323,48.028,911.56,-0.035884,141.16,0.1431,liquid,O2,C7782447,oxygen,154.58,50.43,13.6,0.07352941176470588,0.9,12.470751536783661,0.00040281839999999996
139.12,630.26,33771.0,2.9611e-05,-2.568,-0.70172,109.7,28.328,48.019,912.13,-0.035911,141.3,0.14319,liquid,O2,C7782447,oxygen,154.58,50.43,13.6,0.07352941176470588,0.9,12.497719611342454,0.0004027096
139.12,631.63,33780.0,2.9603e-05,-2.5692,-0.69937,109.69,28.332,48.01,912.69,-0.035938,141.45,0.14329,liquid,O2,C7782447,oxygen,154.58,50.43,13.6,0.07352941176470588,0.9,12.524885980567122,0.0004026008
139.12,633.0,33789.0,2.9596e-05,-2.5704,-0.69701,109.68,28.336,48.0,913.25,-0.035964,141.59,0.14338,liquid,O2,C7782447,oxygen,154.58,50.43,13.6,0.07352941176470588,0.9,12.55205234979179,0.0004025056
139.12,634.36,33797.0,2.9588e-05,-2.5716,-0.69465,109.67,28.34,47.991,913.81,-0.03599,141.73,0.14348,liquid,O2,C7782447,oxygen,154.58,50.43,13.6,0.07352941176470588,0.9,12.579020424350585,0.00040239679999999996
139.12,635.73,33806.0,2.9581e-05,-2.5728,-0.6923,109.65,28.344,47.982,914.37,-0.036017,141.87,0.14357,liquid,O2,C7782447,oxygen,154.58,50.43,13.6,0.07352941176470588,0.9,12.606186793575253,0.00040230159999999997
139.12,637.09,33815.0,2.9573e-05,-2.574,-0.68994,109.64,28.349,47.973,914.93,-0.036043,142.01,0.14366,liquid,O2,C7782447,oxygen,154.58,50.43,13.6,0.07352941176470588,0.9,12.633154868134048,0.0004021928
139.12,638.46,33823.0,2.9566e-05,-2.5752,-0.68758,109.63,28.353,47.964,915.49,-0.036069,142.15,0.14376,liquid,O2,C7782447,oxygen,154.58,50.43,13.6,0.07352941176470588,0.9,12.660321237358716,0.0004020976
139.12,639.82,33832.0,2.9558e-05,-2.5764,-0.68521,109.62,28.357,47.955,916.05,-0.036095,142.3,0.14385,liquid,O2,C7782447,oxygen,154.58,50.43,13.6,0.07352941176470588,0.9,12.68728931191751,0.0004019888
139.12,641.18,33840.0,2.9551e-05,-2.5776,-0.68285,109.61,28.361,47.946,916.6,-0.036121,142.44,0.14395,liquid,O2,C7782447,oxygen,154.58,50.43,13.6,0.07352941176470588,0.9,12.714257386476303,0.0004018936
139.12,642.55,33849.0,2.9543e-05,-2.5788,-0.68049,109.59,28.365,47.937,917.16,-0.036146,142.58,0.14404,liquid,O2,C7782447,oxygen,154.58,50.43,13.6,0.07352941176470588,0.9,12.741423755700971,0.00040178480000000003
139.12,643.91,33857.0,2.9536e-05,-2.58,-0.67812,109.58,28.369,47.929,917.72,-0.036172,142.72,0.14413,liquid,O2,C7782447,oxygen,154.58,50.43,13.6,0.07352941176470588,0.9,12.768391830259766,0.0004016896
139.12,645.28,33866.0,2.9528e-05,-2.5811,-0.67575,109.57,28.373,47.92,918.27,-0.036198,142.86,0.14423,liquid,O2,C7782447,oxygen,154.58,50.43,13.6,0.07352941176470588,0.9,12.795558199484434,0.00040158079999999996
139.12,646.64,33875.0,2.9521e-05,-2.5823,-0.67338,109.56,28.378,47.911,918.83,-0.036223,143.0,0.14432,liquid,O2,C7782447,oxygen,154.58,50.43,13.6,0.07352941176470588,0.9,12.822526274043229,0.0004014856
139.12,648.01,33883.0,2.9513e-05,-2.5835,-0.67101,109.55,28.382,47.902,919.38,-0.036248,143.14,0.14442,liquid,O2,C7782447,oxygen,154.58,50.43,13.6,0.07352941176470588,0.9,12.849692643267897,0.0004013768
139.12,649.38,33892.0,2.9506e-05,-2.5847,-0.66864,109.53,28.386,47.893,919.93,-0.036274,143.29,0.14451,liquid,O2,C7782447,oxygen,154.58,50.43,13.6,0.07352941176470588,0.9,12.876859012492565,0.00040128159999999996
139.12,650.74,33900.0,2.9498e-05,-2.5859,-0.66627,109.52,28.39,47.885,920.48,-0.036299,143.43,0.1446,liquid,O2,C7782447,oxygen,154.58,50.43,13.6,0.07352941176470588,0.9,12.903827087051358,0.0004011728
139.12,652.11,33909.0,2.9491e-05,-2.587,-0.6639,109.51,28.394,47.876,921.04,-0.036324,143.57,0.1447,liquid,O2,C7782447,oxygen,154.58,50.43,13.6,0.07352941176470588,0.9,12.930993456276026,0.0004010776