Temperature (K),Pressure (bar),Density (mol/m3),Volume (m3/mol),Internal Energy (kJ/mol),Enthalpy (kJ/mol),Entropy (J/mol*K),Cv (J/mol*K),Cp (J/mol*K),Sound Spd. (m/s),Joule-Thomson (K/bar),Viscosity (uPa*s),Therm. Cond. (W/m*K),Phase,substance,substance_id,substance_name,Tc,Pc,rhoc,Vmc,Tr,Pr,Vmr
301.72,305.81,12177.0,8.2122e-05,2.0578,4.5692,102.66,14.001,32.389,422.51,0.086615,36.455,0.034547,supercritical,Ar,C7440371,argon,150.86,48.9805,13.41,0.07457121551081282,2.0,6.2435050683435245,0.00110125602
301.72,307.44,12230.0,8.1768e-05,2.0508,4.5647,102.6,14.005,32.407,423.33,0.085684,36.553,0.034648,supercritical,Ar,C7440371,argon,150.86,48.9805,13.41,0.07457121551081282,2.0,6.276783617970417,0.0010965088800000001
301.72,309.07,12282.0,8.1418e-05,2.0438,4.5602,102.54,14.01,32.425,424.17,0.08476,36.652,0.03475,supercritical,Ar,C7440371,argon,150.86,48.9805,13.41,0.07457121551081282,2.0,6.310062167597309,0.00109181538
301.72,310.7,12335.0,8.1072e-05,2.0368,4.5557,102.49,14.015,32.442,425.0,0.083843,36.751,0.034851,supercritical,Ar,C7440371,argon,150.86,48.9805,13.41,0.07457121551081282,2.0,6.343340717224201,0.00108717552
301.72,312.33,12387.0,8.0731e-05,2.0298,4.5513,102.43,14.02,32.458,425.83,0.082932,36.85,0.034953,supercritical,Ar,C7440371,argon,150.86,48.9805,13.41,0.07457121551081282,2.0,6.376619266851094,0.00108260271
301.72,313.96,12439.0,8.0393e-05,2.0229,4.5469,102.37,14.025,32.474,426.66,0.082027,36.949,0.035055,supercritical,Ar,C7440371,argon,150.86,48.9805,13.41,0.07457121551081282,2.0,6.409897816477986,0.0010780701300000001
301.72,315.59,12491.0,8.006e-05,2.016,4.5426,102.31,14.029,32.49,427.5,0.081129,37.049,0.035156,supercritical,Ar,C7440371,argon,150.86,48.9805,13.41,0.07457121551081282,2.0,6.443176366104878,0.0010736046000000001
301.72,317.22,12542.0,7.973e-05,2.0091,4.5383,102.25,14.034,32.505,428.33,0.080237,37.148,0.035258,supercritical,Ar,C7440371,argon,150.86,48.9805,13.41,0.07457121551081282,2.0,6.476454915731772,0.0010691793
301.72,318.85,12594.0,7.9405e-05,2.0023,4.5341,102.2,14.039,32.52,429.17,0.079351,37.248,0.035359,supercritical,Ar,C7440371,argon,150.86,48.9805,13.41,0.07457121551081282,2.0,6.509733465358663,0.00106482105
301.72,320.48,12645.0,7.9083e-05,1.9955,4.5299,102.14,14.043,32.535,430.01,0.078472,37.347,0.035461,supercritical,Ar,C7440371,argon,150.86,48.9805,13.41,0.07457121551081282,2.0,6.543012014985556,0.00106050303
301.72,322.11,12696.0,7.8765e-05,1.9887,4.5258,102.08,14.048,32.549,430.85,0.077599,37.447,0.035563,supercritical,Ar,C7440371,argon,150.86,48.9805,13.41,0.07457121551081282,2.0,6.5762905646124485,0.0010562386500000001
301.72,323.74,12747.0,7.8451e-05,1.9819,4.5217,102.03,14.053,32.563,431.69,0.076732,37.546,0.035664,supercritical,Ar,C7440371,argon,150.86,48.9805,13.41,0.07457121551081282,2.0,6.60956911423934,0.0010520279100000001
301.72,325.37,12797.0,7.8141e-05,1.9752,4.5176,101.97,14.057,32.577,432.53,0.075871,37.646,0.035766,supercritical,Ar,C7440371,argon,150.86,48.9805,13.41,0.07457121551081282,2.0,6.642847663866233,0.00104787081
301.72,327.0,12848.0,7.7834e-05,1.9685,4.5136,101.92,14.062,32.59,433.37,0.075017,37.746,0.035867,supercritical,Ar,C7440371,argon,150.86,48.9805,13.41,0.07457121551081282,2.0,6.6761262134931245,0.00104375394
301.72,328.63,12898.0,7.7531e-05,1.9618,4.5097,101.86,14.066,32.602,434.21,0.074168,37.846,0.035969,supercritical,Ar,C7440371,argon,150.86,48.9805,13.41,0.07457121551081282,2.0,6.709404763120017,0.0010396907100000002
301.72,330.26,12948.0,7.7231e-05,1.9551,4.5057,101.81,14.071,32.615,435.05,0.073325,37.946,0.03607,supercritical,Ar,C7440371,argon,150.86,48.9805,13.41,0.07457121551081282,2.0,6.74268331274691,0.0010356677100000003
301.72,331.89,12998.0,7.6934e-05,1.9485,4.5019,101.75,14.076,32.627,435.9,0.072489,38.046,0.036172,supercritical,Ar,C7440371,argon,150.86,48.9805,13.41,0.07457121551081282,2.0,6.775961862373801,0.00103168494
301.72,333.52,13048.0,7.6642e-05,1.9419,4.498,101.7,14.08,32.638,436.74,0.071658,38.146,0.036273,supercritical,Ar,C7440371,argon,150.86,48.9805,13.41,0.07457121551081282,2.0,6.809240412000694,0.0010277692200000002
301.72,335.15,13097.0,7.6352e-05,1.9353,4.4942,101.64,14.085,32.65,437.58,0.070834,38.246,0.036375,supercritical,Ar,C7440371,argon,150.86,48.9805,13.41,0.07457121551081282,2.0,6.8425189616275865,0.0010238803200000003
301.72,336.78,13147.0,7.6066e-05,1.9288,4.4905,101.59,14.089,32.661,438.43,0.070015,38.346,0.036476,supercritical,Ar,C7440371,argon,150.86,48.9805,13.41,0.07457121551081282,2.0,6.875797511254478,0.00102004506
301.72,338.41,13196.0,7.5782e-05,1.9222,4.4868,101.54,14.094,32.672,439.28,0.069202,38.447,0.036577,supercritical,Ar,C7440371,argon,150.86,48.9805,13.41,0.07457121551081282,2.0,6.909076060881372,0.0010162366200000001
301.72,340.04,13245.0,7.5503e-05,1.9157,4.4831,101.49,14.098,32.682,440.12,0.068395,38.547,0.036679,supercritical,Ar,C7440371,argon,150.86,48.9805,13.41,0.07457121551081282,2.0,6.942354610508264,0.0010124952300000001
301.72,341.67,13293.0,7.5226e-05,1.9093,4.4795,101.43,14.103,32.692,440.97,0.067594,38.647,0.03678,supercritical,Ar,C7440371,argon,150.86,48.9805,13.41,0.07457121551081282,2.0,6.975633160135156,0.00100878066
301.72,343.3,13342.0,7.4952e-05,1.9028,4.4759,101.38,14.107,32.702,441.82,0.066798,38.747,0.036881,supercritical,Ar,C7440371,argon,150.86,48.9805,13.41,0.07457121551081282,2.0,7.008911709762049,0.00100510632
301.72,344.93,13390.0,7.4681e-05,1.8964,4.4724,101.33,14.111,32.711,442.66,0.066008,38.848,0.036983,supercritical,Ar,C7440371,argon,150.86,48.9805,13.41,0.07457121551081282,2.0,7.042190259388941,0.00100147221
301.72,346.56,13438.0,7.4414e-05,1.89,4.4689,101.28,14.116,32.72,443.51,0.065224,38.948,0.037084,supercritical,Ar,C7440371,argon,150.86,48.9805,13.41,0.07457121551081282,2.0,7.075468809015833,0.00099789174
301.72,348.19,13486.0,7.4149e-05,1.8836,4.4654,101.22,14.12,32.729,444.36,0.064445,39.049,0.037185,supercritical,Ar,C7440371,argon,150.86,48.9805,13.41,0.07457121551081282,2.0,7.1087473586427254,0.00099433809
301.72,349.82,13534.0,7.3887e-05,1.8773,4.462,101.17,14.125,32.737,445.21,0.063672,39.149,0.037286,supercritical,Ar,C7440371,argon,150.86,48.9805,13.41,0.07457121551081282,2.0,7.142025908269617,0.00099082467
301.72,351.45,13582.0,7.3628e-05,1.871,4.4586,101.12,14.129,32.746,446.06,0.062904,39.25,0.037387,supercritical,Ar,C7440371,argon,150.86,48.9805,13.41,0.07457121551081282,2.0,7.17530445789651,0.00098735148
301.72,353.08,13629.0,7.3372e-05,1.8647,4.4553,101.07,14.133,32.754,446.91,0.062142,39.35,0.037488,supercritical,Ar,C7440371,argon,150.86,48.9805,13.41,0.07457121551081282,2.0,7.208583007523402,0.0009839185200000002
301.72,354.71,13677.0,7.3118e-05,1.8584,4.452,101.02,14.138,32.761,447.76,0.061386,39.45,0.037589,supercritical,Ar,C7440371,argon,150.86,48.9805,13.41,0.07457121551081282,2.0,7.241861557150294,0.00098051238
301.72,356.34,13724.0,7.2867e-05,1.8522,4.4487,100.97,14.142,32.768,448.61,0.060635,39.551,0.03769,supercritical,Ar,C7440371,argon,150.86,48.9805,13.41,0.07457121551081282,2.0,7.275140106777187,0.0009771464700000002
301.72,357.97,13770.0,7.2619e-05,1.846,4.4455,100.92,14.147,32.775,449.46,0.059889,39.651,0.037791,supercritical,Ar,C7440371,argon,150.86,48.9805,13.41,0.07457121551081282,2.0,7.30841865640408,0.0009738207900000001
301.72,359.6,13817.0,7.2374e-05,1.8398,4.4423,100.87,14.151,32.782,450.31,0.059148,39.752,0.037891,supercritical,Ar,C7440371,argon,150.86,48.9805,13.41,0.07457121551081282,2.0,7.341697206030972,0.0009705353400000001
301.72,361.23,13864.0,7.2131e-05,1.8336,4.4392,100.82,14.155,32.789,451.16,0.058413,39.852,0.037992,supercritical,Ar,C7440371,argon,150.86,48.9805,13.41,0.07457121551081282,2.0,7.374975755657864,0.0009672767100000002
301.72,362.86,13910.0,7.189e-05,1.8275,4.4361,100.77,14.159,32.795,452.02,0.057683,39.953,0.038093,supercritical,Ar,C7440371,argon,150.86,48.9805,13.41,0.07457121551081282,2.0,7.408254305284757,0.0009640449000000001
301.72,364.49,13956.0,7.1653e-05,1.8214,4.433,100.72,14.164,32.801,452.87,0.056959,40.053,0.038193,supercritical,Ar,C7440371,argon,150.86,48.9805,13.41,0.07457121551081282,2.0,7.441532854911649,0.0009608667300000001
301.72,366.12,14002.0,7.1417e-05,1.8153,4.43,100.67,14.168,32.807,453.72,0.056239,40.153,0.038294,supercritical,Ar,C7440371,argon,150.86,48.9805,13.41,0.07457121551081282,2.0,7.474811404538541,0.0009577019700000001
301.72,367.75,14048.0,7.1185e-05,1.8092,4.427,100.63,14.172,32.812,454.57,0.055525,40.254,0.038394,supercritical,Ar,C7440371,argon,150.86,48.9805,13.41,0.07457121551081282,2.0,7.508089954165433,0.0009545908500000001
301.72,369.38,14094.0,7.0954e-05,1.8032,4.4241,100.58,14.177,32.817,455.42,0.054816,40.354,0.038494,supercritical,Ar,C7440371,argon,150.86,48.9805,13.41,0.07457121551081282,2.0,7.5413685037923255,0.0009514931400000001
301.72,371.01,14139.0,7.0726e-05,1.7971,4.4211,100.53,14.181,32.822,456.28,0.054112,40.454,0.038594,supercritical,Ar,C7440371,argon,150.86,48.9805,13.41,0.07457121551081282,2.0,7.574647053419218,0.0009484356600000001
301.72,372.64,14184.0,7.05e-05,1.7911,4.4183,100.48,14.185,32.827,457.13,0.053413,40.555,0.038695,supercritical,Ar,C7440371,argon,150.86,48.9805,13.41,0.07457121551081282,2.0,7.60792560304611,0.0009454050000000002
301.72,374.27,14229.0,7.0277e-05,1.7852,4.4154,100.43,14.189,32.831,457.98,0.052719,40.655,0.038795,supercritical,Ar,C7440371,argon,150.86,48.9805,13.41,0.07457121551081282,2.0,7.641204152673002,0.0009424145700000001
301.72,375.9,14274.0,7.0056e-05,1.7792,4.4126,100.39,14.194,32.836,458.83,0.05203,40.755,0.038895,supercritical,Ar,C7440371,argon,150.86,48.9805,13.41,0.07457121551081282,2.0,7.674482702299895,0.00093945096
301.72,377.53,14319.0,6.9837e-05,1.7733,4.4099,100.34,14.198,32.84,459.69,0.051346,40.855,0.038994,supercritical,Ar,C7440371,argon,150.86,48.9805,13.41,0.07457121551081282,2.0,7.707761251926787,0.0009365141700000001
301.72,379.16,14364.0,6.962e-05,1.7674,4.4071,100.29,14.202,32.844,460.54,0.050666,40.955,0.039094,supercritical,Ar,C7440371,argon,150.86,48.9805,13.41,0.07457121551081282,2.0,7.74103980155368,0.0009336042000000001
301.72,380.79,14408.0,6.9405e-05,1.7615,4.4044,100.25,14.206,32.847,461.39,0.049992,41.055,0.039194,supercritical,Ar,C7440371,argon,150.86,48.9805,13.41,0.07457121551081282,2.0,7.774318351180573,0.0009307210500000001
301.72,382.42,14452.0,6.9193e-05,1.7557,4.4018,100.2,14.21,32.85,462.24,0.049322,41.155,0.039294,supercritical,Ar,C7440371,argon,150.86,48.9805,13.41,0.07457121551081282,2.0,7.807596900807464,0.0009278781300000001
301.72,384.05,14496.0,6.8983e-05,1.7499,4.3991,100.16,14.215,32.854,463.1,0.048658,41.255,0.039393,supercritical,Ar,C7440371,argon,150.86,48.9805,13.41,0.07457121551081282,2.0,7.840875450434357,0.0009250620300000001
301.72,385.68,14540.0,6.8774e-05,1.7441,4.3966,100.11,14.219,32.856,463.95,0.047998,41.355,0.039492,supercritical,Ar,C7440371,argon,150.86,48.9805,13.41,0.07457121551081282,2.0,7.8741540000612495,0.0009222593400000001
301.72,387.31,14584.0,6.8568e-05,1.7383,4.394,100.06,14.223,32.859,464.8,0.047342,41.455,0.039592,supercritical,Ar,C7440371,argon,150.86,48.9805,13.41,0.07457121551081282,2.0,7.907432549688141,0.0009194968800000001
301.72,388.94,14628.0,6.8364e-05,1.7325,4.3915,100.02,14.227,32.862,465.65,0.046692,41.555,0.039691,supercritical,Ar,C7440371,argon,150.86,48.9805,13.41,0.07457121551081282,2.0,7.940711099315034,0.0009167612400000001
301.72,390.57,14671.0,6.8162e-05,1.7268,4.389,99.973,14.231,32.864,466.51,0.046046,41.655,0.03979,supercritical,Ar,C7440371,argon,150.86,48.9805,13.41,0.07457121551081282,2.0,7.9739896489419255,0.0009140524200000001
301.72,392.2,14714.0,6.7962e-05,1.7211,4.3866,99.929,14.235,32.866,467.36,0.045404,41.755,0.039889,supercritical,Ar,C7440371,argon,150.86,48.9805,13.41,0.07457121551081282,2.0,8.007268198568818,0.00091137042
301.72,393.83,14757.0,6.7764e-05,1.7154,4.3841,99.884,14.239,32.868,468.21,0.044767,41.854,0.039988,supercritical,Ar,C7440371,argon,150.86,48.9805,13.41,0.07457121551081282,2.0,8.04054674819571,0.0009087152400000001
301.72,395.46,14800.0,6.7567e-05,1.7097,4.3818,99.839,14.244,32.87,469.06,0.044135,41.954,0.040087,supercritical,Ar,C7440371,argon,150.86,48.9805,13.41,0.07457121551081282,2.0,8.073825297822603,0.00090607347
301.72,397.09,14843.0,6.7373e-05,1.7041,4.3794,99.795,14.248,32.871,469.91,0.043507,42.053,0.040185,supercritical,Ar,C7440371,argon,150.86,48.9805,13.41,0.07457121551081282,2.0,8.107103847449494,0.00090347193
301.72,398.72,14885.0,6.718e-05,1.6985,4.3771,99.751,14.252,32.872,470.77,0.042884,42.153,0.040284,supercritical,Ar,C7440371,argon,150.86,48.9805,13.41,0.07457121551081282,2.0,8.140382397076388,0.0009008838000000002
301.72,400.35,14928.0,6.6989e-05,1.6929,4.3748,99.707,14.256,32.873,471.62,0.042265,42.252,0.040382,supercritical,Ar,C7440371,argon,150.86,48.9805,13.41,0.07457121551081282,2.0,8.173660946703281,0.0008983224900000001
301.72,401.98,14970.0,6.6801e-05,1.6873,4.3726,99.664,14.26,32.874,472.47,0.041651,42.351,0.040481,supercritical,Ar,C7440371,argon,150.86,48.9805,13.41,0.07457121551081282,2.0,8.206939496330172,0.0008958014100000001
301.72,403.61,15012.0,6.6613e-05,1.6818,4.3704,99.62,14.264,32.875,473.32,0.041041,42.45,0.040579,supercritical,Ar,C7440371,argon,150.86,48.9805,13.41,0.07457121551081282,2.0,8.240218045957064,0.00089328033
301.72,405.24,15054.0,6.6428e-05,1.6762,4.3682,99.577,14.268,32.876,474.17,0.040435,42.55,0.040677,supercritical,Ar,C7440371,argon,150.86,48.9805,13.41,0.07457121551081282,2.0,8.273496595583957,0.00089079948
301.72,406.87,15096.0,6.6244e-05,1.6707,4.366,99.534,14.272,32.876,475.02,0.039833,42.649,0.040775,supercritical,Ar,C7440371,argon,150.86,48.9805,13.41,0.07457121551081282,2.0,8.30677514521085,0.0008883320400000001
301.72,408.5,15137.0,6.6062e-05,1.6653,4.3639,99.492,14.276,32.876,475.87,0.039236,42.748,0.040873,supercritical,Ar,C7440371,argon,150.86,48.9805,13.41,0.07457121551081282,2.0,8.340053694837742,0.0008858914200000001
301.72,410.13,15179.0,6.5882e-05,1.6598,4.3618,99.449,14.28,32.877,476.72,0.038643,42.846,0.04097,supercritical,Ar,C7440371,argon,150.86,48.9805,13.41,0.07457121551081282,2.0,8.373332244464635,0.0008834776200000002
301.72,411.76,15220.0,6.5704e-05,1.6543,4.3598,99.407,14.284,32.876,477.57,0.038054,42.945,0.041068,supercritical,Ar,C7440371,argon,150.86,48.9805,13.41,0.07457121551081282,2.0,8.406610794091526,0.0008810906400000002
301.72,413.39,15261.0,6.5527e-05,1.6489,4.3577,99.364,14.288,32.876,478.42,0.03747,43.044,0.041166,supercritical,Ar,C7440371,argon,150.86,48.9805,13.41,0.07457121551081282,2.0,8.439889343718418,0.00087871707
301.72,415.02,15302.0,6.5351e-05,1.6435,4.3557,99.323,14.292,32.876,479.27,0.036889,43.143,0.041263,supercritical,Ar,C7440371,argon,150.86,48.9805,13.41,0.07457121551081282,2.0,8.47316789334531,0.0008763569100000002
301.72,416.65,15343.0,6.5178e-05,1.6382,4.3538,99.281,14.296,32.875,480.11,0.036313,43.241,0.04136,supercritical,Ar,C7440371,argon,150.86,48.9805,13.41,0.07457121551081282,2.0,8.506446442972203,0.0008740369800000001
301.72,418.28,15383.0,6.5005e-05,1.6328,4.3519,99.239,14.3,32.875,480.96,0.035741,43.34,0.041457,supercritical,Ar,C7440371,argon,150.86,48.9805,13.41,0.07457121551081282,2.0,8.539724992599096,0.0008717170500000002
301.72,419.91,15424.0,6.4835e-05,1.6275,4.35,99.198,14.304,32.874,481.81,0.035172,43.438,0.041554,supercritical,Ar,C7440371,argon,150.86,48.9805,13.41,0.07457121551081282,2.0,8.573003542225988,0.00086943735
301.72,421.54,15464.0,6.4666e-05,1.6222,4.3481,99.157,14.308,32.873,482.66,0.034608,43.536,0.041651,supercritical,Ar,C7440371,argon,150.86,48.9805,13.41,0.07457121551081282,2.0,8.606282091852881,0.00086717106
301.72,423.17,15504.0,6.4498e-05,1.6169,4.3462,99.116,14.312,32.872,483.5,0.034048,43.635,0.041748,supercritical,Ar,C7440371,argon,150.86,48.9805,13.41,0.07457121551081282,2.0,8.639560641479774,0.0008649181800000002
301.72,424.8,15544.0,6.4332e-05,1.6116,4.3444,99.075,14.316,32.87,484.35,0.033491,43.733,0.041844,supercritical,Ar,C7440371,argon,150.86,48.9805,13.41,0.07457121551081282,2.0,8.672839191106664,0.00086269212
301.72,426.43,15584.0,6.4168e-05,1.6063,4.3427,99.034,14.32,32.869,485.19,0.032939,43.831,0.041941,supercritical,Ar,C7440371,argon,150.86,48.9805,13.41,0.07457121551081282,2.0,8.706117740733557,0.0008604928800000001
301.72,428.06,15624.0,6.4005e-05,1.6011,4.3409,98.994,14.324,32.867,486.04,0.03239,43.929,0.042037,supercritical,Ar,C7440371,argon,150.86,48.9805,13.41,0.07457121551081282,2.0,8.73939629036045,0.00085830705
301.72,429.69,15663.0,6.3843e-05,1.5959,4.3392,98.954,14.328,32.866,486.88,0.031846,44.026,0.042133,supercritical,Ar,C7440371,argon,150.86,48.9805,13.41,0.07457121551081282,2.0,8.772674839987342,0.0008561346300000001
301.72,431.32,15703.0,6.3683e-05,1.5907,4.3375,98.914,14.332,32.864,487.73,0.031305,44.124,0.04223,supercritical,Ar,C7440371,argon,150.86,48.9805,13.41,0.07457121551081282,2.0,8.805953389614235,0.0008539890300000002
301.72,432.95,15742.0,6.3524e-05,1.5856,4.3358,98.874,14.336,32.862,488.57,0.030768,44.222,0.042325,supercritical,Ar,C7440371,argon,150.86,48.9805,13.41,0.07457121551081282,2.0,8.839231939241126,0.00085185684
301.72,434.58,15781.0,6.3367e-05,1.5804,4.3342,98.834,14.34,32.86,489.42,0.030234,44.319,0.042421,supercritical,Ar,C7440371,argon,150.86,48.9805,13.41,0.07457121551081282,2.0,8.872510488868018,0.0008497514700000001
301.72,436.21,15820.0,6.3211e-05,1.5753,4.3326,98.794,14.344,32.858,490.26,0.029705,44.417,0.042517,supercritical,Ar,C7440371,argon,150.86,48.9805,13.41,0.07457121551081282,2.0,8.90578903849491,0.0008476595100000001
301.72,437.84,15859.0,6.3056e-05,1.5702,4.331,98.755,14.348,32.855,491.1,0.029179,44.514,0.042612,supercritical,Ar,C7440371,argon,150.86,48.9805,13.41,0.07457121551081282,2.0,8.939067588121803,0.0008455809600000001
301.72,439.47,15898.0,6.2902e-05,1.5651,4.3295,98.716,14.352,32.853,491.94,0.028657,44.612,0.042708,supercritical,Ar,C7440371,argon,150.86,48.9805,13.41,0.07457121551081282,2.0,8.972346137748696,0.0008435158200000001
301.72,441.1,15936.0,6.275e-05,1.56,4.3279,98.677,14.356,32.85,492.78,0.028138,44.709,0.042803,supercritical,Ar,C7440371,argon,150.86,48.9805,13.41,0.07457121551081282,2.0,9.005624687375589,0.0008414775
301.72,442.73,15975.0,6.26e-05,1.555,4.3265,98.638,14.36,32.848,493.62,0.027623,44.806,0.042898,supercritical,Ar,C7440371,argon,150.86,48.9805,13.41,0.07457121551081282,2.0,9.038903237002481,0.0008394660000000001
301.72,444.36,16013.0,6.245e-05,1.5499,4.325,98.6,14.364,32.845,494.46,0.027112,44.903,0.042993,supercritical,Ar,C7440371,argon,150.86,48.9805,13.41,0.07457121551081282,2.0,9.072181786629374,0.0008374545000000001
301.72,445.99,16051.0,6.2302e-05,1.5449,4.3235,98.561,14.367,32.842,495.3,0.026604,45.0,0.043088,supercritical,Ar,C7440371,argon,150.86,48.9805,13.41,0.07457121551081282,2.0,9.105460336256266,0.0008354698200000001
301.72,447.62,16089.0,6.2155e-05,1.54,4.3221,98.523,14.371,32.839,496.14,0.0261,45.097,0.043183,supercritical,Ar,C7440371,argon,150.86,48.9805,13.41,0.07457121551081282,2.0,9.138738885883157,0.0008334985500000001
301.72,449.25,16127.0,6.2009e-05,1.535,4.3208,98.485,14.375,32.836,496.98,0.025599,45.193,0.043277,supercritical,Ar,C7440371,argon,150.86,48.9805,13.41,0.07457121551081282,2.0,9.17201743551005,0.00083154069
301.72,450.88,16164.0,6.1865e-05,1.53,4.3194,98.447,14.379,32.833,497.82,0.025101,45.29,0.043372,supercritical,Ar,C7440371,argon,150.86,48.9805,13.41,0.07457121551081282,2.0,9.205295985136942,0.0008296096500000001
301.72,452.51,16202.0,6.1722e-05,1.5251,4.3181,98.409,14.383,32.83,498.65,0.024607,45.387,0.043466,supercritical,Ar,C7440371,argon,150.86,48.9805,13.41,0.07457121551081282,2.0,9.238574534763835,0.0008276920200000001
301.72,454.14,16239.0,6.1579e-05,1.5202,4.3168,98.371,14.387,32.826,499.49,0.024117,45.483,0.04356,supercritical,Ar,C7440371,argon,150.86,48.9805,13.41,0.07457121551081282,2.0,9.271853084390727,0.0008257743900000001