Temperature (K),Pressure (bar),Density (mol/m3),Volume (m3/mol),Internal Energy (kJ/mol),Enthalpy (kJ/mol),Entropy (J/mol*K),Cv (J/mol*K),Cp (J/mol*K),Sound Spd. (m/s),Joule-Thomson (K/bar),Viscosity (uPa*s),Therm. Cond. (W/m*K),Phase,substance,substance_id,substance_name,Tc,Pc,rhoc,Vmc,Tr,Pr,Vmr
309.16,132.04,5369.2,0.00018625,5.6333,8.0925,163.15,21.962,35.857,352.31,0.17083,24.601,0.033719,supercritical,O2,C7782447,oxygen,154.58,50.43,13.6,0.07352941176470588,2.0,2.6182827681935357,0.002533
309.16,133.41,5425.3,0.00018432,5.6252,8.0842,163.04,21.969,35.919,352.66,0.16992,24.648,0.033799,supercritical,O2,C7782447,oxygen,154.58,50.43,13.6,0.07352941176470588,2.0,2.645449137418203,0.0025067519999999997
309.16,134.77,5481.4,0.00018244,5.6172,8.0759,162.94,21.976,35.981,353.01,0.16901,24.695,0.033878,supercritical,O2,C7782447,oxygen,154.58,50.43,13.6,0.07352941176470588,2.0,2.672417211976998,0.002481184
309.16,136.13,5537.4,0.00018059,5.6091,8.0676,162.83,21.983,36.043,353.37,0.16811,24.743,0.033959,supercritical,O2,C7782447,oxygen,154.58,50.43,13.6,0.07352941176470588,2.0,2.699385286535792,0.002456024
309.16,137.5,5593.4,0.00017878,5.6011,8.0593,162.72,21.99,36.104,353.73,0.1672,24.791,0.034039,supercritical,O2,C7782447,oxygen,154.58,50.43,13.6,0.07352941176470588,2.0,2.72655165576046,0.002431408
309.16,138.87,5649.4,0.00017701,5.593,8.0511,162.62,21.998,36.166,354.09,0.1663,24.839,0.03412,supercritical,O2,C7782447,oxygen,154.58,50.43,13.6,0.07352941176470588,2.0,2.753718024985128,0.002407336
309.16,140.23,5705.3,0.00017528,5.585,8.0429,162.51,22.005,36.227,354.46,0.1654,24.887,0.0342,supercritical,O2,C7782447,oxygen,154.58,50.43,13.6,0.07352941176470588,2.0,2.780686099543922,0.002383808
309.16,141.59,5761.2,0.00017358,5.577,8.0347,162.41,22.012,36.288,354.83,0.16449,24.936,0.034282,supercritical,O2,C7782447,oxygen,154.58,50.43,13.6,0.07352941176470588,2.0,2.8076541741027166,0.002360688
309.16,142.96,5817.0,0.00017191,5.569,8.0266,162.31,22.019,36.348,355.2,0.16359,24.985,0.034363,supercritical,O2,C7782447,oxygen,154.58,50.43,13.6,0.07352941176470588,2.0,2.8348205433273845,0.002337976
309.16,144.32,5872.8,0.00017028,5.561,8.0185,162.21,22.026,36.408,355.58,0.16269,25.035,0.034445,supercritical,O2,C7782447,oxygen,154.58,50.43,13.6,0.07352941176470588,2.0,2.861788617886179,0.002315808
309.16,145.69,5928.5,0.00016868,5.553,8.0104,162.1,22.033,36.468,355.96,0.16179,25.084,0.034527,supercritical,O2,C7782447,oxygen,154.58,50.43,13.6,0.07352941176470588,2.0,2.888954987110847,0.002294048
309.16,147.06,5984.2,0.00016711,5.545,8.0024,162.0,22.039,36.528,356.35,0.16089,25.134,0.034609,supercritical,O2,C7782447,oxygen,154.58,50.43,13.6,0.07352941176470588,2.0,2.916121356335515,0.002272696
309.16,148.42,6039.9,0.00016557,5.5371,7.9944,161.9,22.046,36.587,356.73,0.15999,25.184,0.034692,supercritical,O2,C7782447,oxygen,154.58,50.43,13.6,0.07352941176470588,2.0,2.9430894308943087,0.002251752
309.16,149.78,6095.5,0.00016406,5.5291,7.9864,161.81,22.053,36.646,357.13,0.15909,25.235,0.034775,supercritical,O2,C7782447,oxygen,154.58,50.43,13.6,0.07352941176470588,2.0,2.9700575054531035,0.002231216
309.16,151.15,6151.0,0.00016257,5.5212,7.9785,161.71,22.06,36.705,357.52,0.15819,25.286,0.034858,supercritical,O2,C7782447,oxygen,154.58,50.43,13.6,0.07352941176470588,2.0,2.9972238746777715,0.002210952
309.16,152.51,6206.6,0.00016112,5.5132,7.9706,161.61,22.067,36.764,357.92,0.1573,25.337,0.034941,supercritical,O2,C7782447,oxygen,154.58,50.43,13.6,0.07352941176470588,2.0,3.0241919492365654,0.002191232
309.16,153.88,6262.0,0.00015969,5.5053,7.9627,161.52,22.073,36.822,358.32,0.1564,25.388,0.035025,supercritical,O2,C7782447,oxygen,154.58,50.43,13.6,0.07352941176470588,2.0,3.0513583184612334,0.002171784
309.16,155.25,6317.4,0.00015829,5.4974,7.9548,161.42,22.08,36.88,358.73,0.15551,25.439,0.035109,supercritical,O2,C7782447,oxygen,154.58,50.43,13.6,0.07352941176470588,2.0,3.0785246876859014,0.002152744
309.16,156.61,6372.7,0.00015692,5.4895,7.947,161.32,22.087,36.937,359.13,0.15462,25.491,0.035193,supercritical,O2,C7782447,oxygen,154.58,50.43,13.6,0.07352941176470588,2.0,3.1054927622446957,0.002134112
309.16,157.97,6428.0,0.00015557,5.4816,7.9392,161.23,22.093,36.994,359.55,0.15372,25.543,0.035278,supercritical,O2,C7782447,oxygen,154.58,50.43,13.6,0.07352941176470588,2.0,3.13246083680349,0.002115752
309.16,159.34,6483.2,0.00015424,5.4738,7.9315,161.14,22.1,37.051,359.96,0.15283,25.596,0.035363,supercritical,O2,C7782447,oxygen,154.58,50.43,13.6,0.07352941176470588,2.0,3.159627206028158,0.002097664
309.16,160.71,6538.4,0.00015294,5.4659,7.9238,161.04,22.107,37.108,360.38,0.15194,25.648,0.035448,supercritical,O2,C7782447,oxygen,154.58,50.43,13.6,0.07352941176470588,2.0,3.186793575252826,0.002079984
309.16,162.07,6593.5,0.00015166,5.4581,7.9161,160.95,22.113,37.164,360.8,0.15106,25.701,0.035533,supercritical,O2,C7782447,oxygen,154.58,50.43,13.6,0.07352941176470588,2.0,3.21376164981162,0.002062576
309.16,163.44,6648.5,0.00015041,5.4503,7.9085,160.86,22.12,37.22,361.23,0.15017,25.754,0.035619,supercritical,O2,C7782447,oxygen,154.58,50.43,13.6,0.07352941176470588,2.0,3.240928019036288,0.002045576
309.16,164.8,6703.5,0.00014918,5.4424,7.9008,160.77,22.126,37.275,361.66,0.14929,25.808,0.035704,supercritical,O2,C7782447,oxygen,154.58,50.43,13.6,0.07352941176470588,2.0,3.2678960935950827,0.002028848
309.16,166.16,6758.4,0.00014796,5.4346,7.8933,160.68,22.133,37.331,362.09,0.1484,25.861,0.035791,supercritical,O2,C7782447,oxygen,154.58,50.43,13.6,0.07352941176470588,2.0,3.2948641681538766,0.002012256
309.16,167.53,6813.3,0.00014677,5.4268,7.8857,160.59,22.139,37.386,362.52,0.14752,25.915,0.035877,supercritical,O2,C7782447,oxygen,154.58,50.43,13.6,0.07352941176470588,2.0,3.3220305373785446,0.001996072
309.16,168.9,6868.1,0.0001456,5.4191,7.8782,160.5,22.145,37.44,362.96,0.14664,25.969,0.035964,supercritical,O2,C7782447,oxygen,154.58,50.43,13.6,0.07352941176470588,2.0,3.3491969066032126,0.00198016
309.16,170.26,6922.8,0.00014445,5.4113,7.8707,160.41,22.152,37.494,363.41,0.14577,26.024,0.03605,supercritical,O2,C7782447,oxygen,154.58,50.43,13.6,0.07352941176470588,2.0,3.3761649811620065,0.0019645199999999995
309.16,171.62,6977.4,0.00014332,5.4036,7.8633,160.33,22.158,37.548,363.85,0.14489,26.079,0.036138,supercritical,O2,C7782447,oxygen,154.58,50.43,13.6,0.07352941176470588,2.0,3.4031330557208013,0.001949152
309.16,172.99,7032.0,0.00014221,5.3958,7.8559,160.24,22.164,37.602,364.3,0.14401,26.133,0.036225,supercritical,O2,C7782447,oxygen,154.58,50.43,13.6,0.07352941176470588,2.0,3.4302994249454692,0.001934056
309.16,174.35,7086.5,0.00014111,5.3881,7.8485,160.15,22.171,37.655,364.75,0.14314,26.189,0.036313,supercritical,O2,C7782447,oxygen,154.58,50.43,13.6,0.07352941176470588,2.0,3.457267499504263,0.0019190960000000001
309.16,175.72,7140.9,0.00014004,5.3804,7.8412,160.07,22.177,37.708,365.21,0.14227,26.244,0.036401,supercritical,O2,C7782447,oxygen,154.58,50.43,13.6,0.07352941176470588,2.0,3.484433868728931,0.0019045439999999998
309.16,177.09,7195.2,0.00013898,5.3727,7.8339,159.98,22.183,37.76,365.66,0.1414,26.3,0.036489,supercritical,O2,C7782447,oxygen,154.58,50.43,13.6,0.07352941176470588,2.0,3.511600237953599,0.001890128
309.16,178.45,7249.5,0.00013794,5.365,7.8266,159.9,22.189,37.812,366.13,0.14054,26.356,0.036577,supercritical,O2,C7782447,oxygen,154.58,50.43,13.6,0.07352941176470588,2.0,3.538568312512393,0.0018759839999999998
309.16,179.81,7303.7,0.00013692,5.3574,7.8194,159.81,22.195,37.864,366.59,0.13967,26.412,0.036666,supercritical,O2,C7782447,oxygen,154.58,50.43,13.6,0.07352941176470588,2.0,3.565536387071188,0.0018621120000000002
309.16,181.18,7357.8,0.00013591,5.3497,7.8122,159.73,22.201,37.915,367.06,0.13881,26.468,0.036755,supercritical,O2,C7782447,oxygen,154.58,50.43,13.6,0.07352941176470588,2.0,3.592702756295856,0.0018483759999999999
309.16,182.54,7411.8,0.00013492,5.3421,7.805,159.65,22.207,37.966,367.53,0.13795,26.525,0.036844,supercritical,O2,C7782447,oxygen,154.58,50.43,13.6,0.07352941176470588,2.0,3.6196708308546497,0.0018349119999999997
309.16,183.91,7465.8,0.00013394,5.3345,7.7979,159.56,22.213,38.017,368.0,0.13709,26.582,0.036933,supercritical,O2,C7782447,oxygen,154.58,50.43,13.6,0.07352941176470588,2.0,3.6468372000793177,0.001821584
309.16,185.28,7519.6,0.00013299,5.3269,7.7908,159.48,22.219,38.067,368.48,0.13623,26.639,0.037023,supercritical,O2,C7782447,oxygen,154.58,50.43,13.6,0.07352941176470588,2.0,3.6740035693039856,0.0018086640000000002
309.16,186.64,7573.4,0.00013204,5.3193,7.7837,159.4,22.225,38.117,368.96,0.13538,26.696,0.037113,supercritical,O2,C7782447,oxygen,154.58,50.43,13.6,0.07352941176470588,2.0,3.70097164386278,0.0017957439999999997
309.16,188.0,7627.1,0.00013111,5.3117,7.7767,159.32,22.231,38.166,369.44,0.13452,26.754,0.037203,supercritical,O2,C7782447,oxygen,154.58,50.43,13.6,0.07352941176470588,2.0,3.7279397184215743,0.001783096
309.16,189.37,7680.7,0.0001302,5.3042,7.7697,159.24,22.237,38.215,369.93,0.13367,26.812,0.037293,supercritical,O2,C7782447,oxygen,154.58,50.43,13.6,0.07352941176470588,2.0,3.7551060876462423,0.00177072
309.16,190.74,7734.3,0.00012929,5.2966,7.7627,159.16,22.243,38.264,370.42,0.13283,26.87,0.037384,supercritical,O2,C7782447,oxygen,154.58,50.43,13.6,0.07352941176470588,2.0,3.7822724568709103,0.001758344
309.16,192.1,7787.7,0.00012841,5.2891,7.7558,159.08,22.249,38.312,370.91,0.13198,26.928,0.037475,supercritical,O2,C7782447,oxygen,154.58,50.43,13.6,0.07352941176470588,2.0,3.8092405314297046,0.001746376
309.16,193.47,7841.1,0.00012753,5.2816,7.7489,159.0,22.255,38.36,371.4,0.13114,26.986,0.037566,supercritical,O2,C7782447,oxygen,154.58,50.43,13.6,0.07352941176470588,2.0,3.836406900654372,0.0017344079999999998
309.16,194.83,7894.3,0.00012667,5.2741,7.7421,158.92,22.26,38.408,371.9,0.1303,27.045,0.037657,supercritical,O2,C7782447,oxygen,154.58,50.43,13.6,0.07352941176470588,2.0,3.863374975213167,0.001722712
309.16,196.19,7947.5,0.00012583,5.2666,7.7353,158.85,22.266,38.455,372.4,0.12946,27.104,0.037748,supercritical,O2,C7782447,oxygen,154.58,50.43,13.6,0.07352941176470588,2.0,3.8903430497719613,0.001711288
309.16,197.56,8000.6,0.00012499,5.2592,7.7285,158.77,22.272,38.502,372.91,0.12862,27.163,0.03784,supercritical,O2,C7782447,oxygen,154.58,50.43,13.6,0.07352941176470588,2.0,3.917509418996629,0.0016998640000000001
309.16,198.93,8053.5,0.00012417,5.2517,7.7217,158.69,22.278,38.548,373.41,0.12779,27.222,0.037932,supercritical,O2,C7782447,oxygen,154.58,50.43,13.6,0.07352941176470588,2.0,3.944675788221297,0.001688712
309.16,200.29,8106.4,0.00012336,5.2443,7.715,158.62,22.283,38.594,373.92,0.12696,27.282,0.038024,supercritical,O2,C7782447,oxygen,154.58,50.43,13.6,0.07352941176470588,2.0,3.971643862780091,0.001677696
309.16,201.66,8159.2,0.00012256,5.2369,7.7084,158.54,22.289,38.64,374.43,0.12613,27.341,0.038116,supercritical,O2,C7782447,oxygen,154.58,50.43,13.6,0.07352941176470588,2.0,3.998810232004759,0.0016668159999999998
309.16,203.02,8211.9,0.00012177,5.2295,7.7017,158.46,22.294,38.685,374.95,0.1253,27.401,0.038209,supercritical,O2,C7782447,oxygen,154.58,50.43,13.6,0.07352941176470588,2.0,4.025778306563554,0.001656072
309.16,204.38,8264.5,0.000121,5.2221,7.6951,158.39,22.3,38.73,375.47,0.12448,27.461,0.038301,supercritical,O2,C7782447,oxygen,154.58,50.43,13.6,0.07352941176470588,2.0,4.052746381122348,0.0016455999999999999
309.16,205.75,8317.0,0.00012024,5.2147,7.6886,158.31,22.306,38.775,375.99,0.12366,27.522,0.038394,supercritical,O2,C7782447,oxygen,154.58,50.43,13.6,0.07352941176470588,2.0,4.079912750347016,0.001635264
309.16,207.12,8369.4,0.00011948,5.2074,7.682,158.24,22.311,38.819,376.51,0.12284,27.582,0.038487,supercritical,O2,C7782447,oxygen,154.58,50.43,13.6,0.07352941176470588,2.0,4.107079119571684,0.0016249279999999999
309.16,208.48,8421.7,0.00011874,5.2001,7.6755,158.17,22.316,38.862,377.04,0.12203,27.643,0.03858,supercritical,O2,C7782447,oxygen,154.58,50.43,13.6,0.07352941176470588,2.0,4.134047194130478,0.001614864
309.16,209.84,8474.0,0.00011801,5.1927,7.6691,158.09,22.322,38.906,377.57,0.12121,27.704,0.038674,supercritical,O2,C7782447,oxygen,154.58,50.43,13.6,0.07352941176470588,2.0,4.1610152686892725,0.001604936
309.16,211.21,8526.1,0.00011729,5.1854,7.6627,158.02,22.327,38.949,378.1,0.1204,27.765,0.038768,supercritical,O2,C7782447,oxygen,154.58,50.43,13.6,0.07352941176470588,2.0,4.1881816379139405,0.001595144
309.16,212.57,8578.1,0.00011658,5.1782,7.6563,157.95,22.333,38.991,378.63,0.1196,27.826,0.038861,supercritical,O2,C7782447,oxygen,154.58,50.43,13.6,0.07352941176470588,2.0,4.215149712472734,0.001585488
309.16,213.94,8630.0,0.00011588,5.1709,7.6499,157.88,22.338,39.033,379.17,0.11879,27.887,0.038955,supercritical,O2,C7782447,oxygen,154.58,50.43,13.6,0.07352941176470588,2.0,4.242316081697402,0.0015759679999999999
309.16,215.31,8681.7,0.00011518,5.1637,7.6436,157.81,22.343,39.075,379.71,0.11799,27.949,0.039049,supercritical,O2,C7782447,oxygen,154.58,50.43,13.6,0.07352941176470588,2.0,4.26948245092207,0.001566448
309.16,216.67,8733.4,0.0001145,5.1564,7.6374,157.73,22.349,39.116,380.25,0.11719,28.011,0.039144,supercritical,O2,C7782447,oxygen,154.58,50.43,13.6,0.07352941176470588,2.0,4.296450525480864,0.0015572000000000001
309.16,218.03,8785.0,0.00011383,5.1492,7.6311,157.66,22.354,39.157,380.8,0.1164,28.073,0.039238,supercritical,O2,C7782447,oxygen,154.58,50.43,13.6,0.07352941176470588,2.0,4.323418600039659,0.001548088
309.16,219.4,8836.5,0.00011317,5.142,7.6249,157.59,22.359,39.198,381.35,0.1156,28.135,0.039333,supercritical,O2,C7782447,oxygen,154.58,50.43,13.6,0.07352941176470588,2.0,4.350584969264327,0.001539112
309.16,220.76,8887.9,0.00011251,5.1349,7.6187,157.52,22.365,39.238,381.9,0.11481,28.197,0.039428,supercritical,O2,C7782447,oxygen,154.58,50.43,13.6,0.07352941176470588,2.0,4.377553043823121,0.001530136
309.16,222.13,8939.1,0.00011187,5.1277,7.6126,157.45,22.37,39.278,382.45,0.11403,28.259,0.039523,supercritical,O2,C7782447,oxygen,154.58,50.43,13.6,0.07352941176470588,2.0,4.404719413047789,0.0015214319999999999
309.16,223.5,8990.3,0.00011123,5.1206,7.6065,157.39,22.375,39.317,383.0,0.11324,28.322,0.039618,supercritical,O2,C7782447,oxygen,154.58,50.43,13.6,0.07352941176470588,2.0,4.431885782272457,0.001512728
309.16,224.86,9041.3,0.0001106,5.1134,7.6005,157.32,22.38,39.356,383.56,0.11246,28.385,0.039713,supercritical,O2,C7782447,oxygen,154.58,50.43,13.6,0.07352941176470588,2.0,4.458853856831252,0.00150416
309.16,226.22,9092.3,0.00010998,5.1063,7.5944,157.25,22.385,39.395,384.12,0.11168,28.447,0.039808,supercritical,O2,C7782447,oxygen,154.58,50.43,13.6,0.07352941176470588,2.0,4.485821931390046,0.001495728
309.16,227.59,9143.1,0.00010937,5.0992,7.5884,157.18,22.39,39.433,384.69,0.11091,28.511,0.039904,supercritical,O2,C7782447,oxygen,154.58,50.43,13.6,0.07352941176470588,2.0,4.512988300614714,0.0014874320000000001
309.16,228.96,9193.8,0.00010877,5.0922,7.5825,157.11,22.395,39.471,385.25,0.11013,28.574,0.04,supercritical,O2,C7782447,oxygen,154.58,50.43,13.6,0.07352941176470588,2.0,4.5401546698393815,0.001479272
309.16,230.32,9244.4,0.00010817,5.0851,7.5766,157.05,22.4,39.508,385.82,0.10937,28.637,0.040095,supercritical,O2,C7782447,oxygen,154.58,50.43,13.6,0.07352941176470588,2.0,4.5671227443981754,0.001471112
309.16,231.69,9294.9,0.00010759,5.0781,7.5707,156.98,22.405,39.545,386.39,0.1086,28.7,0.040191,supercritical,O2,C7782447,oxygen,154.58,50.43,13.6,0.07352941176470588,2.0,4.594289113622843,0.001463224
309.16,233.05,9345.3,0.00010701,5.0711,7.5649,156.91,22.41,39.582,386.96,0.10784,28.764,0.040287,supercritical,O2,C7782447,oxygen,154.58,50.43,13.6,0.07352941176470588,2.0,4.621257188181638,0.0014553359999999998
309.16,234.41,9395.5,0.00010643,5.0641,7.559,156.85,22.415,39.618,387.54,0.10707,28.828,0.040384,supercritical,O2,C7782447,oxygen,154.58,50.43,13.6,0.07352941176470588,2.0,4.648225262740432,0.0014474479999999998
309.16,235.78,9445.7,0.00010587,5.0571,7.5533,156.78,22.42,39.654,388.11,0.10632,28.892,0.04048,supercritical,O2,C7782447,oxygen,154.58,50.43,13.6,0.07352941176470588,2.0,4.6753916319651,0.001439832
309.16,237.15,9495.7,0.00010531,5.0501,7.5475,156.72,22.425,39.689,388.69,0.10556,28.956,0.040576,supercritical,O2,C7782447,oxygen,154.58,50.43,13.6,0.07352941176470588,2.0,4.702558001189768,0.001432216
309.16,238.51,9545.6,0.00010476,5.0432,7.5418,156.65,22.43,39.724,389.27,0.10481,29.02,0.040673,supercritical,O2,C7782447,oxygen,154.58,50.43,13.6,0.07352941176470588,2.0,4.729526075748562,0.001424736
309.16,239.88,9595.4,0.00010422,5.0363,7.5362,156.59,22.435,39.759,389.86,0.10406,29.084,0.04077,supercritical,O2,C7782447,oxygen,154.58,50.43,13.6,0.07352941176470588,2.0,4.75669244497323,0.001417392
309.16,241.24,9645.1,0.00010368,5.0294,7.5305,156.52,22.44,39.793,390.44,0.10332,29.148,0.040866,supercritical,O2,C7782447,oxygen,154.58,50.43,13.6,0.07352941176470588,2.0,4.783660519532025,0.001410048
309.16,242.6,9694.6,0.00010315,5.0225,7.5249,156.46,22.445,39.827,391.03,0.10258,29.213,0.040963,supercritical,O2,C7782447,oxygen,154.58,50.43,13.6,0.07352941176470588,2.0,4.810628594090819,0.00140284
309.16,243.97,9744.1,0.00010263,5.0156,7.5194,156.4,22.449,39.861,391.62,0.10184,29.277,0.04106,supercritical,O2,C7782447,oxygen,154.58,50.43,13.6,0.07352941176470588,2.0,4.837794963315487,0.001395768
309.16,245.34,9793.4,0.00010211,5.0088,7.5139,156.33,22.454,39.894,392.21,0.1011,29.342,0.041157,supercritical,O2,C7782447,oxygen,154.58,50.43,13.6,0.07352941176470588,2.0,4.864961332540155,0.0013886959999999998
309.16,246.7,9842.6,0.0001016,5.0019,7.5084,156.27,22.459,39.927,392.81,0.10037,29.407,0.041255,supercritical,O2,C7782447,oxygen,154.58,50.43,13.6,0.07352941176470588,2.0,4.8919294070989485,0.0013817599999999999
309.16,248.06,9891.7,0.00010109,4.9951,7.5029,156.21,22.464,39.959,393.41,0.099642,29.472,0.041352,supercritical,O2,C7782447,oxygen,154.58,50.43,13.6,0.07352941176470588,2.0,4.918897481657743,0.001374824
309.16,249.43,9940.7,0.0001006,4.9883,7.4975,156.15,22.468,39.991,394.0,0.098916,29.537,0.041449,supercritical,O2,C7782447,oxygen,154.58,50.43,13.6,0.07352941176470588,2.0,4.946063850882411,0.00136816
309.16,250.79,9989.5,0.0001001,4.9815,7.4921,156.08,22.473,40.023,394.61,0.098193,29.602,0.041547,supercritical,O2,C7782447,oxygen,154.58,50.43,13.6,0.07352941176470588,2.0,4.973031925441205,0.0013613599999999998
309.16,252.16,10038.0,9.9619e-05,4.9748,7.4868,156.02,22.478,40.054,395.21,0.097473,29.667,0.041644,supercritical,O2,C7782447,oxygen,154.58,50.43,13.6,0.07352941176470588,2.0,5.000198294665873,0.0013548184
309.16,253.53,10087.0,9.9139e-05,4.9681,7.4815,155.96,22.482,40.085,395.81,0.096757,29.733,0.041742,supercritical,O2,C7782447,oxygen,154.58,50.43,13.6,0.07352941176470588,2.0,5.027364663890541,0.0013482904
309.16,254.89,10135.0,9.8665e-05,4.9613,7.4762,155.9,22.487,40.116,396.42,0.096043,29.798,0.04184,supercritical,O2,C7782447,oxygen,154.58,50.43,13.6,0.07352941176470588,2.0,5.054332738449335,0.001341844
309.16,256.25,10184.0,9.8196e-05,4.9546,7.471,155.84,22.492,40.146,397.03,0.095333,29.864,0.041937,supercritical,O2,C7782447,oxygen,154.58,50.43,13.6,0.07352941176470588,2.0,5.08130081300813,0.0013354656
309.16,257.62,10232.0,9.7733e-05,4.9479,7.4657,155.78,22.496,40.176,397.64,0.094626,29.929,0.042035,supercritical,O2,C7782447,oxygen,154.58,50.43,13.6,0.07352941176470588,2.0,5.108467182232798,0.0013291687999999998
309.16,258.99,10280.0,9.7276e-05,4.9413,7.4606,155.72,22.501,40.205,398.25,0.093923,29.995,0.042133,supercritical,O2,C7782447,oxygen,154.58,50.43,13.6,0.07352941176470588,2.0,5.135633551457466,0.0013229536
309.16,260.35,10328.0,9.6823e-05,4.9346,7.4554,155.66,22.505,40.234,398.87,0.093222,30.061,0.042231,supercritical,O2,C7782447,oxygen,154.58,50.43,13.6,0.07352941176470588,2.0,5.162601626016261,0.0013167928
309.16,261.71,10376.0,9.6377e-05,4.928,7.4503,155.6,22.51,40.263,399.48,0.092525,30.126,0.042329,supercritical,O2,C7782447,oxygen,154.58,50.43,13.6,0.07352941176470588,2.0,5.1895697005750545,0.0013107271999999999