Temperature (K),Pressure (bar),Density (mol/m3),Volume (m3/mol),Internal Energy (kJ/mol),Enthalpy (kJ/mol),Entropy (J/mol*K),Cv (J/mol*K),Cp (J/mol*K),Sound Spd. (m/s),Joule-Thomson (K/bar),Viscosity (uPa*s),Therm. Cond. (W/m*K),Phase,substance,substance_id,substance_name,Tc,Pc,rhoc,Vmc,Tr,Pr,Vmr
309.16,1.0,38.924,0.025691,6.4273,8.9964,206.2,21.125,29.479,334.63,0.25002,21.155,0.027202,vapor,O2,C7782447,oxygen,154.58,50.43,13.6,0.07352941176470588,2.0,0.019829466587348802,0.3493976
309.16,2.365,92.122,0.010855,6.4191,8.9863,199.02,21.135,29.542,334.67,0.24936,21.183,0.027262,vapor,O2,C7782447,oxygen,154.58,50.43,13.6,0.07352941176470588,2.0,0.04689668847907992,0.147628
309.16,3.73,145.4,0.0068778,6.4108,8.9763,195.2,21.145,29.605,334.71,0.24869,21.212,0.027322,vapor,O2,C7782447,oxygen,154.58,50.43,13.6,0.07352941176470588,2.0,0.07396391037081103,0.09353808
309.16,5.095,198.74,0.0050316,6.4026,8.9662,192.58,21.155,29.669,334.76,0.24802,21.241,0.027382,vapor,O2,C7782447,oxygen,154.58,50.43,13.6,0.07352941176470588,2.0,0.10103113226254214,0.06842975999999999
309.16,6.46,252.17,0.0039656,6.3944,8.9562,190.58,21.165,29.732,334.8,0.24734,21.27,0.027442,vapor,O2,C7782447,oxygen,154.58,50.43,13.6,0.07352941176470588,2.0,0.12809835415427326,0.05393215999999999
309.16,7.825,305.67,0.0032715,6.3861,8.9461,188.96,21.174,29.796,334.85,0.24666,21.3,0.027502,vapor,O2,C7782447,oxygen,154.58,50.43,13.6,0.07352941176470588,2.0,0.15516557604600437,0.0444924
309.16,9.19,359.24,0.0027837,6.3779,8.9361,187.6,21.184,29.861,334.91,0.24598,21.329,0.027562,vapor,O2,C7782447,oxygen,154.58,50.43,13.6,0.07352941176470588,2.0,0.18223279793773547,0.03785832
309.16,10.555,412.88,0.002422,6.3697,8.9261,186.42,21.194,29.925,334.96,0.24529,21.358,0.027623,vapor,O2,C7782447,oxygen,154.58,50.43,13.6,0.07352941176470588,2.0,0.20930001982946658,0.0329392
309.16,11.92,466.6,0.0021432,6.3614,8.9161,185.38,21.204,29.989,335.02,0.24459,21.387,0.027683,vapor,O2,C7782447,oxygen,154.58,50.43,13.6,0.07352941176470588,2.0,0.2363672417211977,0.02914752
309.16,13.285,520.39,0.0019216,6.3532,8.9061,184.45,21.213,30.054,335.08,0.24389,21.417,0.027744,vapor,O2,C7782447,oxygen,154.58,50.43,13.6,0.07352941176470588,2.0,0.2634344636129288,0.02613376
309.16,14.65,574.25,0.0017414,6.3449,8.8961,183.61,21.223,30.119,335.14,0.24319,21.446,0.027804,vapor,O2,C7782447,oxygen,154.58,50.43,13.6,0.07352941176470588,2.0,0.29050168550465993,0.02368304
309.16,16.015,628.18,0.0015919,6.3366,8.8861,182.85,21.233,30.184,335.21,0.24248,21.476,0.027865,vapor,O2,C7782447,oxygen,154.58,50.43,13.6,0.07352941176470588,2.0,0.31756890739639104,0.02164984
309.16,17.38,682.19,0.0014659,6.3284,8.8761,182.14,21.242,30.249,335.28,0.24177,21.505,0.027926,vapor,O2,C7782447,oxygen,154.58,50.43,13.6,0.07352941176470588,2.0,0.34463612928812215,0.01993624
309.16,18.745,736.26,0.0013582,6.3201,8.8661,181.49,21.252,30.314,335.35,0.24105,21.535,0.027987,vapor,O2,C7782447,oxygen,154.58,50.43,13.6,0.07352941176470588,2.0,0.37170335117985326,0.018471519999999998
309.16,20.11,790.4,0.0012652,6.3118,8.8561,180.87,21.262,30.379,335.42,0.24033,21.565,0.028048,vapor,O2,C7782447,oxygen,154.58,50.43,13.6,0.07352941176470588,2.0,0.39877057307158437,0.01720672
309.16,21.475,844.61,0.001184,6.3036,8.8462,180.3,21.271,30.445,335.5,0.23961,21.594,0.02811,vapor,O2,C7782447,oxygen,154.58,50.43,13.6,0.07352941176470588,2.0,0.42583779496331553,0.0161024
309.16,22.84,898.88,0.0011125,6.2953,8.8362,179.76,21.281,30.511,335.58,0.23888,21.624,0.028171,vapor,O2,C7782447,oxygen,154.58,50.43,13.6,0.07352941176470588,2.0,0.4529050168550466,0.01513
309.16,24.205,953.22,0.0010491,6.287,8.8263,179.25,21.29,30.577,335.66,0.23814,21.654,0.028232,vapor,O2,C7782447,oxygen,154.58,50.43,13.6,0.07352941176470588,2.0,0.4799722387467777,0.01426776
309.16,25.57,1007.6,0.00099243,6.2787,8.8163,178.77,21.3,30.643,335.75,0.23741,21.685,0.028294,vapor,O2,C7782447,oxygen,154.58,50.43,13.6,0.07352941176470588,2.0,0.5070394606385088,0.013497048000000001
309.16,26.935,1062.1,0.00094153,6.2704,8.8064,178.31,21.309,30.709,335.83,0.23666,21.715,0.028356,vapor,O2,C7782447,oxygen,154.58,50.43,13.6,0.07352941176470588,2.0,0.53410668253024,0.012804807999999999
309.16,28.3,1116.6,0.00089554,6.2621,8.7965,177.88,21.319,30.775,335.93,0.23592,21.745,0.028418,vapor,O2,C7782447,oxygen,154.58,50.43,13.6,0.07352941176470588,2.0,0.561173904421971,0.012179344
309.16,29.665,1171.2,0.00085379,6.2538,8.7866,177.46,21.328,30.841,336.02,0.23516,21.776,0.02848,vapor,O2,C7782447,oxygen,154.58,50.43,13.6,0.07352941176470588,2.0,0.5882411263137022,0.011611544
309.16,31.03,1225.9,0.00081572,6.2455,8.7767,177.06,21.338,30.908,336.12,0.23441,21.806,0.028542,vapor,O2,C7782447,oxygen,154.58,50.43,13.6,0.07352941176470588,2.0,0.6153083482054333,0.011093792
309.16,32.395,1280.6,0.00078086,6.2372,8.7668,176.67,21.347,30.975,336.21,0.23365,21.837,0.028605,vapor,O2,C7782447,oxygen,154.58,50.43,13.6,0.07352941176470588,2.0,0.6423755700971645,0.010619696
309.16,33.76,1335.4,0.00074883,6.2289,8.7569,176.3,21.357,31.041,336.32,0.23289,21.868,0.028667,vapor,O2,C7782447,oxygen,154.58,50.43,13.6,0.07352941176470588,2.0,0.6694427919888954,0.010184088
309.16,35.125,1390.3,0.00071929,6.2206,8.7471,175.95,21.366,31.108,336.42,0.23212,21.899,0.02873,vapor,O2,C7782447,oxygen,154.58,50.43,13.6,0.07352941176470588,2.0,0.6965100138806266,0.009782344
309.16,36.49,1445.2,0.00069196,6.2123,8.7372,175.6,21.375,31.175,336.53,0.23135,21.93,0.028793,vapor,O2,C7782447,oxygen,154.58,50.43,13.6,0.07352941176470588,2.0,0.7235772357723578,0.009410656
309.16,37.855,1500.1,0.00066661,6.2039,8.7274,175.27,21.385,31.242,336.64,0.23057,21.961,0.028856,vapor,O2,C7782447,oxygen,154.58,50.43,13.6,0.07352941176470588,2.0,0.7506444576640888,0.009065896
309.16,39.22,1555.2,0.00064302,6.1956,8.7176,174.95,21.394,31.31,336.75,0.22979,21.992,0.028919,vapor,O2,C7782447,oxygen,154.58,50.43,13.6,0.07352941176470588,2.0,0.7777116795558199,0.008745072
309.16,40.585,1610.2,0.00062103,6.1873,8.7077,174.64,21.403,31.377,336.87,0.22901,22.024,0.028982,vapor,O2,C7782447,oxygen,154.58,50.43,13.6,0.07352941176470588,2.0,0.804778901447551,0.008446008
309.16,41.95,1665.4,0.00060047,6.179,8.6979,174.34,21.413,31.444,336.99,0.22823,22.055,0.029046,vapor,O2,C7782447,oxygen,154.58,50.43,13.6,0.07352941176470588,2.0,0.8318461233392822,0.008166392
309.16,43.315,1720.6,0.00058121,6.1706,8.6881,174.05,21.422,31.512,337.11,0.22743,22.087,0.029109,vapor,O2,C7782447,oxygen,154.58,50.43,13.6,0.07352941176470588,2.0,0.8589133452310133,0.007904455999999999
309.16,44.68,1775.8,0.00056313,6.1623,8.6784,173.76,21.431,31.579,337.24,0.22664,22.119,0.029173,vapor,O2,C7782447,oxygen,154.58,50.43,13.6,0.07352941176470588,2.0,0.8859805671227444,0.007658568
309.16,46.045,1831.1,0.00054612,6.154,8.6686,173.49,21.44,31.647,337.37,0.22584,22.151,0.029237,vapor,O2,C7782447,oxygen,154.58,50.43,13.6,0.07352941176470588,2.0,0.9130477890144756,0.007427232
309.16,47.41,1886.4,0.0005301,6.1457,8.6589,173.22,21.449,31.715,337.5,0.22504,22.183,0.029301,vapor,O2,C7782447,oxygen,154.58,50.43,13.6,0.07352941176470588,2.0,0.9401150109062065,0.007209360000000001
309.16,48.775,1941.8,0.00051498,6.1373,8.6491,172.95,21.459,31.783,337.64,0.22424,22.216,0.029366,vapor,O2,C7782447,oxygen,154.58,50.43,13.6,0.07352941176470588,2.0,0.9671822327979377,0.007003727999999999
309.16,50.14,1997.3,0.00050068,6.129,8.6394,172.7,21.468,31.851,337.78,0.22343,22.248,0.02943,vapor,O2,C7782447,oxygen,154.58,50.43,13.6,0.07352941176470588,2.0,0.9942494546896689,0.0068092479999999995
309.16,51.505,2052.8,0.00048714,6.1207,8.6297,172.45,21.477,31.918,337.92,0.22262,22.281,0.029495,vapor,O2,C7782447,oxygen,154.58,50.43,13.6,0.07352941176470588,2.0,1.0213166765814,0.006625104
309.16,51.505,2052.8,0.00048714,6.1207,8.6297,172.45,21.477,31.918,337.92,0.22262,22.281,0.029495,supercritical,O2,C7782447,oxygen,154.58,50.43,13.6,0.07352941176470588,2.0,1.0213166765814,0.006625104
309.16,52.87,2108.3,0.00047431,6.1123,8.62,172.21,21.486,31.986,338.06,0.2218,22.314,0.02956,supercritical,O2,C7782447,oxygen,154.58,50.43,13.6,0.07352941176470588,2.0,1.048383898473131,0.006450615999999999
309.16,54.235,2163.9,0.00046213,6.104,8.6103,171.97,21.495,32.055,338.21,0.22098,22.347,0.029625,supercritical,O2,C7782447,oxygen,154.58,50.43,13.6,0.07352941176470588,2.0,1.0754511203648622,0.006284968
309.16,55.6,2219.5,0.00045054,6.0956,8.6007,171.74,21.504,32.123,338.36,0.22016,22.38,0.02969,supercritical,O2,C7782447,oxygen,154.58,50.43,13.6,0.07352941176470588,2.0,1.1025183422565934,0.006127344
309.16,56.965,2275.2,0.00043952,6.0873,8.591,171.51,21.513,32.191,338.52,0.21934,22.413,0.029755,supercritical,O2,C7782447,oxygen,154.58,50.43,13.6,0.07352941176470588,2.0,1.1295855641483246,0.005977471999999999
309.16,58.33,2330.9,0.00042901,6.079,8.5814,171.29,21.522,32.259,338.68,0.21851,22.447,0.029821,supercritical,O2,C7782447,oxygen,154.58,50.43,13.6,0.07352941176470588,2.0,1.1566527860400555,0.005834536
309.16,59.695,2386.7,0.00041899,6.0706,8.5718,171.07,21.531,32.327,338.84,0.21768,22.481,0.029887,supercritical,O2,C7782447,oxygen,154.58,50.43,13.6,0.07352941176470588,2.0,1.1837200079317867,0.005698264
309.16,61.06,2442.5,0.00040941,6.0623,8.5622,170.85,21.54,32.395,339.0,0.21685,22.515,0.029953,supercritical,O2,C7782447,oxygen,154.58,50.43,13.6,0.07352941176470588,2.0,1.2107872298235178,0.0055679760000000005
309.16,62.425,2498.4,0.00040026,6.054,8.5526,170.64,21.549,32.464,339.17,0.21601,22.549,0.030019,supercritical,O2,C7782447,oxygen,154.58,50.43,13.6,0.07352941176470588,2.0,1.2378544517152488,0.005443536
309.16,63.79,2554.3,0.0003915,6.0456,8.543,170.44,21.558,32.532,339.34,0.21517,22.583,0.030086,supercritical,O2,C7782447,oxygen,154.58,50.43,13.6,0.07352941176470588,2.0,1.26492167360698,0.005324399999999999
309.16,65.155,2610.2,0.00038312,6.0373,8.5335,170.24,21.566,32.6,339.51,0.21433,22.618,0.030153,supercritical,O2,C7782447,oxygen,154.58,50.43,13.6,0.07352941176470588,2.0,1.291988895498711,0.005210431999999999
309.16,66.52,2666.1,0.00037508,6.029,8.524,170.04,21.575,32.669,339.69,0.21348,22.652,0.030219,supercritical,O2,C7782447,oxygen,154.58,50.43,13.6,0.07352941176470588,2.0,1.319056117390442,0.005101088
309.16,67.885,2722.1,0.00036736,6.0206,8.5144,169.84,21.584,32.737,339.87,0.21263,22.687,0.030287,supercritical,O2,C7782447,oxygen,154.58,50.43,13.6,0.07352941176470588,2.0,1.3461233392821734,0.004996096
309.16,69.25,2778.2,0.00035995,6.0123,8.505,169.65,21.593,32.805,340.06,0.21178,22.722,0.030354,supercritical,O2,C7782447,oxygen,154.58,50.43,13.6,0.07352941176470588,2.0,1.3731905611739044,0.00489532
309.16,70.615,2834.2,0.00035283,6.004,8.4955,169.46,21.601,32.874,340.24,0.21093,22.758,0.030421,supercritical,O2,C7782447,oxygen,154.58,50.43,13.6,0.07352941176470588,2.0,1.4002577830656355,0.004798488
309.16,71.98,2890.3,0.00034598,5.9956,8.486,169.28,21.61,32.942,340.44,0.21007,22.793,0.030489,supercritical,O2,C7782447,oxygen,154.58,50.43,13.6,0.07352941176470588,2.0,1.4273250049573667,0.004705328
309.16,73.345,2946.4,0.00033939,5.9873,8.4766,169.1,21.619,33.01,340.63,0.20921,22.829,0.030557,supercritical,O2,C7782447,oxygen,154.58,50.43,13.6,0.07352941176470588,2.0,1.4543922268490976,0.004615704
309.16,74.71,3002.6,0.00033305,5.979,8.4672,168.92,21.627,33.079,340.83,0.20835,22.865,0.030625,supercritical,O2,C7782447,oxygen,154.58,50.43,13.6,0.07352941176470588,2.0,1.4814594487408288,0.00452948
309.16,76.075,3058.8,0.00032693,5.9707,8.4578,168.74,21.636,33.147,341.03,0.20749,22.901,0.030694,supercritical,O2,C7782447,oxygen,154.58,50.43,13.6,0.07352941176470588,2.0,1.50852667063256,0.004446248
309.16,77.44,3115.0,0.00032103,5.9623,8.4484,168.57,21.645,33.215,341.23,0.20662,22.938,0.030763,supercritical,O2,C7782447,oxygen,154.58,50.43,13.6,0.07352941176470588,2.0,1.5355938925242911,0.004366007999999999
309.16,78.805,3171.2,0.00031534,5.954,8.439,168.4,21.653,33.283,341.44,0.20576,22.974,0.030832,supercritical,O2,C7782447,oxygen,154.58,50.43,13.6,0.07352941176470588,2.0,1.5626611144160223,0.0042886239999999996
309.16,80.17,3227.5,0.00030984,5.9457,8.4297,168.23,21.662,33.351,341.65,0.20489,23.011,0.030901,supercritical,O2,C7782447,oxygen,154.58,50.43,13.6,0.07352941176470588,2.0,1.5897283363077535,0.004213824
309.16,81.535,3283.7,0.00030453,5.9374,8.4204,168.06,21.67,33.419,341.87,0.20401,23.048,0.03097,supercritical,O2,C7782447,oxygen,154.58,50.43,13.6,0.07352941176470588,2.0,1.6167955581994844,0.004141608
309.16,82.9,3340.0,0.0002994,5.9291,8.4111,167.9,21.679,33.488,342.09,0.20314,23.086,0.03104,supercritical,O2,C7782447,oxygen,154.58,50.43,13.6,0.07352941176470588,2.0,1.6438627800912156,0.00407184
309.16,84.265,3396.3,0.00029443,5.9208,8.4018,167.74,21.687,33.555,342.31,0.20226,23.123,0.03111,supercritical,O2,C7782447,oxygen,154.58,50.43,13.6,0.07352941176470588,2.0,1.6709300019829467,0.004004247999999999
309.16,85.63,3452.7,0.00028963,5.9125,8.3926,167.58,21.695,33.623,342.53,0.20138,23.161,0.03118,supercritical,O2,C7782447,oxygen,154.58,50.43,13.6,0.07352941176470588,2.0,1.6979972238746777,0.003938967999999999
309.16,86.995,3509.0,0.00028498,5.9042,8.3833,167.42,21.704,33.691,342.76,0.2005,23.199,0.03125,supercritical,O2,C7782447,oxygen,154.58,50.43,13.6,0.07352941176470588,2.0,1.725064445766409,0.0038757279999999997
309.16,88.36,3565.4,0.00028047,5.8959,8.3741,167.27,21.712,33.759,342.99,0.19962,23.237,0.031321,supercritical,O2,C7782447,oxygen,154.58,50.43,13.6,0.07352941176470588,2.0,1.75213166765814,0.0038143919999999998
309.16,89.725,3621.8,0.00027611,5.8876,8.3649,167.12,21.72,33.827,343.23,0.19874,23.276,0.031391,supercritical,O2,C7782447,oxygen,154.58,50.43,13.6,0.07352941176470588,2.0,1.779198889549871,0.003755096
309.16,91.09,3678.2,0.00027187,5.8793,8.3558,166.97,21.729,33.894,343.47,0.19785,23.315,0.031463,supercritical,O2,C7782447,oxygen,154.58,50.43,13.6,0.07352941176470588,2.0,1.8062661114416023,0.003697432
309.16,92.455,3734.6,0.00026777,5.871,8.3466,166.82,21.737,33.962,343.71,0.19697,23.354,0.031534,supercritical,O2,C7782447,oxygen,154.58,50.43,13.6,0.07352941176470588,2.0,1.8333333333333333,0.0036416720000000003
309.16,93.82,3791.0,0.00026378,5.8627,8.3375,166.67,21.745,34.029,343.96,0.19608,23.393,0.031606,supercritical,O2,C7782447,oxygen,154.58,50.43,13.6,0.07352941176470588,2.0,1.8604005552250644,0.0035874080000000003
309.16,95.185,3847.5,0.00025991,5.8544,8.3284,166.53,21.753,34.097,344.21,0.19519,23.433,0.031677,supercritical,O2,C7782447,oxygen,154.58,50.43,13.6,0.07352941176470588,2.0,1.8874677771167956,0.0035347760000000003
309.16,96.55,3903.9,0.00025615,5.8462,8.3193,166.38,21.761,34.164,344.46,0.1943,23.472,0.03175,supercritical,O2,C7782447,oxygen,154.58,50.43,13.6,0.07352941176470588,2.0,1.9145349990085265,0.00348364
309.16,97.915,3960.3,0.0002525,5.8379,8.3103,166.24,21.77,34.231,344.72,0.1934,23.512,0.031822,supercritical,O2,C7782447,oxygen,154.58,50.43,13.6,0.07352941176470588,2.0,1.941602220900258,0.003434
309.16,99.28,4016.8,0.00024896,5.8296,8.3013,166.1,21.778,34.298,344.98,0.19251,23.553,0.031895,supercritical,O2,C7782447,oxygen,154.58,50.43,13.6,0.07352941176470588,2.0,1.9686694427919889,0.003385856
309.16,100.64,4073.2,0.00024551,5.8214,8.2923,165.96,21.786,34.365,345.24,0.19161,23.593,0.031967,supercritical,O2,C7782447,oxygen,154.58,50.43,13.6,0.07352941176470588,2.0,1.9956375173507832,0.003338936
309.16,102.01,4129.7,0.00024215,5.8131,8.2833,165.83,21.794,34.431,345.51,0.19072,23.634,0.032041,supercritical,O2,C7782447,oxygen,154.58,50.43,13.6,0.07352941176470588,2.0,2.0228038865754514,0.00329324
309.16,103.38,4186.1,0.00023888,5.8049,8.2743,165.69,21.802,34.498,345.78,0.18982,23.675,0.032114,supercritical,O2,C7782447,oxygen,154.58,50.43,13.6,0.07352941176470588,2.0,2.049970255800119,0.003248768
309.16,104.74,4242.6,0.0002357,5.7966,8.2654,165.56,21.81,34.565,346.06,0.18892,23.716,0.032188,supercritical,O2,C7782447,oxygen,154.58,50.43,13.6,0.07352941176470588,2.0,2.0769383303589133,0.00320552
309.16,106.11,4299.0,0.00023261,5.7884,8.2565,165.42,21.818,34.631,346.34,0.18802,23.758,0.032262,supercritical,O2,C7782447,oxygen,154.58,50.43,13.6,0.07352941176470588,2.0,2.1041046995835813,0.003163496
309.16,107.47,4355.5,0.0002296,5.7802,8.2476,165.29,21.825,34.697,346.62,0.18712,23.8,0.032336,supercritical,O2,C7782447,oxygen,154.58,50.43,13.6,0.07352941176470588,2.0,2.1310727741423756,0.00312256
309.16,108.83,4411.9,0.00022666,5.772,8.2388,165.16,21.833,34.763,346.9,0.18622,23.842,0.03241,supercritical,O2,C7782447,oxygen,154.58,50.43,13.6,0.07352941176470588,2.0,2.15804084870117,0.003082576
309.16,110.2,4468.4,0.0002238,5.7637,8.23,165.04,21.841,34.829,347.19,0.18532,23.885,0.032485,supercritical,O2,C7782447,oxygen,154.58,50.43,13.6,0.07352941176470588,2.0,2.185207217925838,0.00304368
309.16,111.56,4524.8,0.000221,5.7555,8.2212,164.91,21.849,34.895,347.49,0.18441,23.927,0.03256,supercritical,O2,C7782447,oxygen,154.58,50.43,13.6,0.07352941176470588,2.0,2.2121752924846323,0.0030055999999999998
309.16,112.93,4581.2,0.00021828,5.7473,8.2124,164.78,21.857,34.96,347.78,0.18351,23.97,0.032636,supercritical,O2,C7782447,oxygen,154.58,50.43,13.6,0.07352941176470588,2.0,2.2393416617093003,0.0029686079999999998
309.16,114.3,4637.6,0.00021563,5.7391,8.2036,164.66,21.864,35.025,348.08,0.18261,24.013,0.032711,supercritical,O2,C7782447,oxygen,154.58,50.43,13.6,0.07352941176470588,2.0,2.266508030933968,0.002932568
309.16,115.66,4694.0,0.00021304,5.7309,8.1949,164.54,21.872,35.091,348.39,0.1817,24.057,0.032787,supercritical,O2,C7782447,oxygen,154.58,50.43,13.6,0.07352941176470588,2.0,2.293476105492762,0.002897344
309.16,117.03,4750.4,0.00021051,5.7228,8.1862,164.42,21.88,35.156,348.69,0.1808,24.101,0.032863,supercritical,O2,C7782447,oxygen,154.58,50.43,13.6,0.07352941176470588,2.0,2.32064247471743,0.002862936
309.16,118.39,4806.8,0.00020804,5.7146,8.1776,164.3,21.887,35.22,349.0,0.17989,24.145,0.03294,supercritical,O2,C7782447,oxygen,154.58,50.43,13.6,0.07352941176470588,2.0,2.3476105492762245,0.0028293439999999997
309.16,119.75,4863.1,0.00020563,5.7064,8.1689,164.18,21.895,35.285,349.32,0.17898,24.189,0.033016,supercritical,O2,C7782447,oxygen,154.58,50.43,13.6,0.07352941176470588,2.0,2.374578623835019,0.0027965679999999997
309.16,121.12,4919.4,0.00020328,5.6983,8.1603,164.06,21.902,35.349,349.64,0.17808,24.234,0.033093,supercritical,O2,C7782447,oxygen,154.58,50.43,13.6,0.07352941176470588,2.0,2.401744993059687,0.002764608
309.16,122.48,4975.7,0.00020097,5.6901,8.1518,163.94,21.91,35.413,349.96,0.17717,24.279,0.033171,supercritical,O2,C7782447,oxygen,154.58,50.43,13.6,0.07352941176470588,2.0,2.428713067618481,0.0027331919999999997
309.16,123.85,5032.0,0.00019873,5.682,8.1432,163.83,21.917,35.477,350.28,0.17626,24.324,0.033248,supercritical,O2,C7782447,oxygen,154.58,50.43,13.6,0.07352941176470588,2.0,2.4558794368431487,0.0027027279999999997
309.16,125.22,5088.3,0.00019653,5.6738,8.1347,163.71,21.925,35.541,350.61,0.17536,24.369,0.033326,supercritical,O2,C7782447,oxygen,154.58,50.43,13.6,0.07352941176470588,2.0,2.4830458060678167,0.0026728079999999996
309.16,126.58,5144.5,0.00019438,5.6657,8.1262,163.6,21.932,35.605,350.94,0.17445,24.415,0.033404,supercritical,O2,C7782447,oxygen,154.58,50.43,13.6,0.07352941176470588,2.0,2.510013880626611,0.002643568
309.16,127.94,5200.8,0.00019228,5.6576,8.1177,163.48,21.94,35.668,351.28,0.17354,24.461,0.033482,supercritical,O2,C7782447,oxygen,154.58,50.43,13.6,0.07352941176470588,2.0,2.5369819551854054,0.002615008
309.16,129.31,5256.9,0.00019022,5.6495,8.1093,163.37,21.947,35.731,351.62,0.17264,24.507,0.033561,supercritical,O2,C7782447,oxygen,154.58,50.43,13.6,0.07352941176470588,2.0,2.5641483244100733,0.002586992
309.16,130.68,5313.1,0.00018821,5.6414,8.1009,163.26,21.954,35.794,351.96,0.17173,24.554,0.03364,supercritical,O2,C7782447,oxygen,154.58,50.43,13.6,0.07352941176470588,2.0,2.5913146936347413,0.0025596559999999996