Temperature (K),Pressure (bar),Density (mol/m3),Volume (m3/mol),Internal Energy (kJ/mol),Enthalpy (kJ/mol),Entropy (J/mol*K),Cv (J/mol*K),Cp (J/mol*K),Sound Spd. (m/s),Joule-Thomson (K/bar),Viscosity (uPa*s),Therm. Cond. (W/m*K),Phase,substance,substance_id,substance_name,Tc,Pc,rhoc,Vmc,Tr,Pr,Vmr
841.1,2112.0,35242.0,2.8375e-05,39.027,45.019,80.732,46.27,77.634,1203.5,0.011054,81.245,0.51547,supercritical,H2O,C7732185,water,647.0,220.64,17.9,0.0558659217877095,1.3,9.572153734590284,0.0005079125
841.1,2119.3,35290.0,2.8337e-05,39.008,45.013,80.7,46.274,77.568,1205.7,0.010887,81.364,0.51639,supercritical,H2O,C7732185,water,647.0,220.64,17.9,0.0558659217877095,1.3,9.605239303843366,0.0005072322999999999
841.1,2126.7,35337.0,2.8299e-05,38.989,45.007,80.668,46.278,77.502,1207.9,0.010721,81.482,0.51731,supercritical,H2O,C7732185,water,647.0,220.64,17.9,0.0558659217877095,1.3,9.638778100072516,0.0005065521
841.1,2134.0,35383.0,2.8262e-05,38.97,45.001,80.636,46.282,77.436,1210.0,0.010556,81.6,0.51823,supercritical,H2O,C7732185,water,647.0,220.64,17.9,0.0558659217877095,1.3,9.6718636693256,0.0005058898
841.1,2141.4,35430.0,2.8225e-05,38.951,44.995,80.604,46.285,77.371,1212.2,0.010394,81.717,0.51914,supercritical,H2O,C7732185,water,647.0,220.64,17.9,0.0558659217877095,1.3,9.705402465554752,0.0005052275
841.1,2148.7,35476.0,2.8188e-05,38.932,44.989,80.572,46.289,77.306,1214.4,0.010232,81.835,0.52005,supercritical,H2O,C7732185,water,647.0,220.64,17.9,0.0558659217877095,1.3,9.738488034807832,0.0005045652
841.1,2156.1,35522.0,2.8151e-05,38.914,44.983,80.541,46.293,77.242,1216.5,0.010072,81.952,0.52096,supercritical,H2O,C7732185,water,647.0,220.64,17.9,0.0558659217877095,1.3,9.772026831036984,0.0005039029
841.1,2163.4,35568.0,2.8115e-05,38.895,44.978,80.51,46.297,77.179,1218.7,0.0099133,82.069,0.52187,supercritical,H2O,C7732185,water,647.0,220.64,17.9,0.0558659217877095,1.3,9.805112400290067,0.0005032585
841.1,2170.8,35614.0,2.8079e-05,38.877,44.972,80.478,46.301,77.115,1220.8,0.0097559,82.185,0.52278,supercritical,H2O,C7732185,water,647.0,220.64,17.9,0.0558659217877095,1.3,9.838651196519217,0.0005026141
841.1,2178.1,35659.0,2.8043e-05,38.859,44.967,80.447,46.305,77.052,1223.0,0.0096,82.301,0.52368,supercritical,H2O,C7732185,water,647.0,220.64,17.9,0.0558659217877095,1.3,9.8717367657723,0.0005019696999999999
841.1,2185.5,35704.0,2.8008e-05,38.84,44.961,80.416,46.309,76.99,1225.1,0.0094453,82.417,0.52459,supercritical,H2O,C7732185,water,647.0,220.64,17.9,0.0558659217877095,1.3,9.905275562001451,0.0005013432
841.1,2192.8,35750.0,2.7972e-05,38.822,44.956,80.386,46.313,76.928,1227.2,0.009292,82.532,0.52549,supercritical,H2O,C7732185,water,647.0,220.64,17.9,0.0558659217877095,1.3,9.938361131254533,0.0005006988
841.1,2200.2,35794.0,2.7937e-05,38.804,44.951,80.355,46.317,76.867,1229.4,0.00914,82.647,0.52638,supercritical,H2O,C7732185,water,647.0,220.64,17.9,0.0558659217877095,1.3,9.971899927483683,0.0005000722999999999
841.1,2207.5,35839.0,2.7902e-05,38.786,44.946,80.325,46.321,76.805,1231.5,0.0089892,82.762,0.52728,supercritical,H2O,C7732185,water,647.0,220.64,17.9,0.0558659217877095,1.3,10.004985496736767,0.0004994458
841.1,2214.8,35884.0,2.7868e-05,38.768,44.941,80.294,46.325,76.745,1233.6,0.0088398,82.877,0.52817,supercritical,H2O,C7732185,water,647.0,220.64,17.9,0.0558659217877095,1.3,10.038071065989849,0.0004988372
841.1,2222.2,35928.0,2.7833e-05,38.751,44.936,80.264,46.329,76.684,1235.7,0.0086915,82.991,0.52907,supercritical,H2O,C7732185,water,647.0,220.64,17.9,0.0558659217877095,1.3,10.071609862218999,0.0004982106999999999
841.1,2229.5,35972.0,2.7799e-05,38.733,44.931,80.234,46.333,76.624,1237.8,0.0085446,83.105,0.52996,supercritical,H2O,C7732185,water,647.0,220.64,17.9,0.0558659217877095,1.3,10.104695431472082,0.0004976020999999999
841.1,2236.9,36016.0,2.7765e-05,38.715,44.926,80.204,46.337,76.565,1239.9,0.0083988,83.219,0.53084,supercritical,H2O,C7732185,water,647.0,220.64,17.9,0.0558659217877095,1.3,10.138234227701235,0.0004969935
841.1,2244.2,36060.0,2.7732e-05,38.698,44.921,80.174,46.341,76.506,1242.0,0.0082543,83.332,0.53173,supercritical,H2O,C7732185,water,647.0,220.64,17.9,0.0558659217877095,1.3,10.171319796954315,0.0004964028
841.1,2251.6,36103.0,2.7698e-05,38.68,44.917,80.145,46.345,76.447,1244.1,0.0081109,83.445,0.53262,supercritical,H2O,C7732185,water,647.0,220.64,17.9,0.0558659217877095,1.3,10.204858593183467,0.0004957942
841.1,2258.9,36147.0,2.7665e-05,38.663,44.912,80.115,46.349,76.389,1246.2,0.0079687,83.558,0.5335,supercritical,H2O,C7732185,water,647.0,220.64,17.9,0.0558659217877095,1.3,10.23794416243655,0.0004952035
841.1,2266.3,36190.0,2.7632e-05,38.646,44.908,80.086,46.353,76.331,1248.2,0.0078277,83.671,0.53438,supercritical,H2O,C7732185,water,647.0,220.64,17.9,0.0558659217877095,1.3,10.2714829586657,0.0004946127999999999
841.1,2273.6,36233.0,2.7599e-05,38.628,44.903,80.056,46.357,76.274,1250.3,0.0076879,83.783,0.53526,supercritical,H2O,C7732185,water,647.0,220.64,17.9,0.0558659217877095,1.3,10.304568527918782,0.0004940221
841.1,2281.0,36276.0,2.7567e-05,38.611,44.899,80.027,46.361,76.216,1252.4,0.0075491,83.895,0.53614,supercritical,H2O,C7732185,water,647.0,220.64,17.9,0.0558659217877095,1.3,10.338107324147934,0.0004934493
841.1,2288.3,36318.0,2.7534e-05,38.594,44.895,79.998,46.365,76.16,1254.4,0.0074115,84.007,0.53701,supercritical,H2O,C7732185,water,647.0,220.64,17.9,0.0558659217877095,1.3,10.371192893401016,0.0004928586
841.1,2295.7,36361.0,2.7502e-05,38.577,44.891,79.969,46.369,76.103,1256.5,0.0072751,84.118,0.53788,supercritical,H2O,C7732185,water,647.0,220.64,17.9,0.0558659217877095,1.3,10.404731689630166,0.0004922857999999999
841.1,2303.0,36403.0,2.747e-05,38.56,44.887,79.94,46.373,76.047,1258.5,0.0071397,84.229,0.53876,supercritical,H2O,C7732185,water,647.0,220.64,17.9,0.0558659217877095,1.3,10.43781725888325,0.000491713
841.1,2310.4,36445.0,2.7438e-05,38.544,44.883,79.912,46.378,75.992,1260.6,0.0070054,84.34,0.53963,supercritical,H2O,C7732185,water,647.0,220.64,17.9,0.0558659217877095,1.3,10.471356055112402,0.0004911402
841.1,2317.7,36487.0,2.7407e-05,38.527,44.879,79.883,46.382,75.936,1262.6,0.0068721,84.45,0.54049,supercritical,H2O,C7732185,water,647.0,220.64,17.9,0.0558659217877095,1.3,10.504441624365482,0.0004905853
841.1,2325.1,36529.0,2.7375e-05,38.51,44.875,79.855,46.386,75.881,1264.7,0.0067399,84.561,0.54136,supercritical,H2O,C7732185,water,647.0,220.64,17.9,0.0558659217877095,1.3,10.537980420594634,0.0004900125
841.1,2332.4,36571.0,2.7344e-05,38.494,44.872,79.826,46.39,75.827,1266.7,0.0066088,84.671,0.54222,supercritical,H2O,C7732185,water,647.0,220.64,17.9,0.0558659217877095,1.3,10.571065989847718,0.0004894576
841.1,2339.8,36612.0,2.7313e-05,38.477,44.868,79.798,46.394,75.773,1268.7,0.0064787,84.78,0.54309,supercritical,H2O,C7732185,water,647.0,220.64,17.9,0.0558659217877095,1.3,10.60460478607687,0.0004889027
841.1,2347.1,36654.0,2.7282e-05,38.461,44.864,79.77,46.398,75.719,1270.7,0.0063496,84.89,0.54395,supercritical,H2O,C7732185,water,647.0,220.64,17.9,0.0558659217877095,1.3,10.63769035532995,0.0004883478
841.1,2354.5,36695.0,2.7252e-05,38.444,44.861,79.742,46.402,75.665,1272.7,0.0062216,84.999,0.54481,supercritical,H2O,C7732185,water,647.0,220.64,17.9,0.0558659217877095,1.3,10.671229151559102,0.0004878108
841.1,2361.8,36736.0,2.7221e-05,38.428,44.857,79.714,46.406,75.612,1274.7,0.0060945,85.108,0.54566,supercritical,H2O,C7732185,water,647.0,220.64,17.9,0.0558659217877095,1.3,10.704314720812183,0.00048725589999999995
841.1,2369.2,36777.0,2.7191e-05,38.412,44.854,79.686,46.41,75.559,1276.8,0.0059684,85.217,0.54652,supercritical,H2O,C7732185,water,647.0,220.64,17.9,0.0558659217877095,1.3,10.737853517041334,0.0004867189
841.1,2376.5,36817.0,2.7161e-05,38.396,44.851,79.659,46.415,75.507,1278.8,0.0058433,85.325,0.54737,supercritical,H2O,C7732185,water,647.0,220.64,17.9,0.0558659217877095,1.3,10.770939086294417,0.00048618189999999995
841.1,2383.9,36858.0,2.7131e-05,38.38,44.848,79.631,46.419,75.455,1280.7,0.0057192,85.433,0.54823,supercritical,H2O,C7732185,water,647.0,220.64,17.9,0.0558659217877095,1.3,10.80447788252357,0.0004856449
841.1,2391.2,36898.0,2.7102e-05,38.364,44.844,79.604,46.423,75.403,1282.7,0.005596,85.541,0.54908,supercritical,H2O,C7732185,water,647.0,220.64,17.9,0.0558659217877095,1.3,10.83756345177665,0.00048512579999999994
841.1,2398.6,36938.0,2.7072e-05,38.348,44.841,79.576,46.427,75.351,1284.7,0.0054738,85.649,0.54993,supercritical,H2O,C7732185,water,647.0,220.64,17.9,0.0558659217877095,1.3,10.871102248005801,0.0004845888
841.1,2405.9,36978.0,2.7043e-05,38.332,44.838,79.549,46.431,75.3,1286.7,0.0053525,85.756,0.55078,supercritical,H2O,C7732185,water,647.0,220.64,17.9,0.0558659217877095,1.3,10.904187817258885,0.0004840696999999999
841.1,2413.3,37018.0,2.7014e-05,38.316,44.835,79.522,46.435,75.249,1288.7,0.0052321,85.863,0.55162,supercritical,H2O,C7732185,water,647.0,220.64,17.9,0.0558659217877095,1.3,10.937726613488037,0.00048355059999999995
841.1,2420.6,37058.0,2.6985e-05,38.301,44.833,79.495,46.44,75.199,1290.6,0.0051126,85.97,0.55247,supercritical,H2O,C7732185,water,647.0,220.64,17.9,0.0558659217877095,1.3,10.970812182741117,0.0004830315
841.1,2428.0,37097.0,2.6956e-05,38.285,44.83,79.468,46.444,75.149,1292.6,0.004994,86.076,0.55331,supercritical,H2O,C7732185,water,647.0,220.64,17.9,0.0558659217877095,1.3,11.004350978970269,0.00048251239999999996
841.1,2435.3,37137.0,2.6927e-05,38.269,44.827,79.442,46.448,75.099,1294.6,0.0048764,86.183,0.55415,supercritical,H2O,C7732185,water,647.0,220.64,17.9,0.0558659217877095,1.3,11.037436548223353,0.0004819933
841.1,2442.6,37176.0,2.6899e-05,38.254,44.824,79.415,46.452,75.049,1296.5,0.0047596,86.289,0.55499,supercritical,H2O,C7732185,water,647.0,220.64,17.9,0.0558659217877095,1.3,11.070522117476433,0.0004814921
841.1,2450.0,37215.0,2.6871e-05,38.239,44.822,79.388,46.456,75.0,1298.5,0.0046437,86.394,0.55583,supercritical,H2O,C7732185,water,647.0,220.64,17.9,0.0558659217877095,1.3,11.104060913705585,0.00048099089999999997
841.1,2457.3,37254.0,2.6843e-05,38.223,44.819,79.362,46.46,74.951,1300.4,0.0045286,86.5,0.55667,supercritical,H2O,C7732185,water,647.0,220.64,17.9,0.0558659217877095,1.3,11.137146482958666,0.0004804897
841.1,2464.7,37293.0,2.6815e-05,38.208,44.817,79.335,46.465,74.902,1302.4,0.0044144,86.605,0.5575,supercritical,H2O,C7732185,water,647.0,220.64,17.9,0.0558659217877095,1.3,11.170685279187817,0.0004799885
841.1,2472.0,37332.0,2.6787e-05,38.193,44.814,79.309,46.469,74.854,1304.3,0.004301,86.71,0.55833,supercritical,H2O,C7732185,water,647.0,220.64,17.9,0.0558659217877095,1.3,11.2037708484409,0.00047948729999999995
841.1,2479.4,37370.0,2.6759e-05,38.177,44.812,79.283,46.473,74.806,1306.2,0.0041885,86.815,0.55917,supercritical,H2O,C7732185,water,647.0,220.64,17.9,0.0558659217877095,1.3,11.237309644670052,0.00047898609999999996
841.1,2486.7,37409.0,2.6732e-05,38.162,44.81,79.257,46.477,74.758,1308.2,0.0040768,86.92,0.56,supercritical,H2O,C7732185,water,647.0,220.64,17.9,0.0558659217877095,1.3,11.270395213923132,0.0004785028
841.1,2494.1,37447.0,2.6704e-05,38.147,44.808,79.231,46.481,74.71,1310.1,0.003966,87.024,0.56083,supercritical,H2O,C7732185,water,647.0,220.64,17.9,0.0558659217877095,1.3,11.303934010152284,0.00047800159999999997
841.1,2501.4,37485.0,2.6677e-05,38.132,44.805,79.205,46.486,74.663,1312.0,0.0038559,87.128,0.56165,supercritical,H2O,C7732185,water,647.0,220.64,17.9,0.0558659217877095,1.3,11.337019579405368,0.00047751829999999996
841.1,2508.8,37523.0,2.665e-05,38.117,44.803,79.179,46.49,74.616,1313.9,0.0037466,87.232,0.56248,supercritical,H2O,C7732185,water,647.0,220.64,17.9,0.0558659217877095,1.3,11.37055837563452,0.000477035
841.1,2516.1,37561.0,2.6623e-05,38.103,44.801,79.154,46.494,74.57,1315.9,0.0036382,87.335,0.5633,supercritical,H2O,C7732185,water,647.0,220.64,17.9,0.0558659217877095,1.3,11.4036439448876,0.00047655169999999994
841.1,2523.5,37599.0,2.6597e-05,38.088,44.799,79.128,46.498,74.523,1317.8,0.0035305,87.439,0.56413,supercritical,H2O,C7732185,water,647.0,220.64,17.9,0.0558659217877095,1.3,11.437182741116752,0.00047608629999999996
841.1,2530.8,37636.0,2.657e-05,38.073,44.797,79.103,46.502,74.477,1319.7,0.0034236,87.542,0.56495,supercritical,H2O,C7732185,water,647.0,220.64,17.9,0.0558659217877095,1.3,11.470268310369836,0.000475603
841.1,2538.2,37674.0,2.6544e-05,38.058,44.796,79.077,46.507,74.431,1321.6,0.0033174,87.644,0.56577,supercritical,H2O,C7732185,water,647.0,220.64,17.9,0.0558659217877095,1.3,11.503807106598984,0.0004751375999999999
841.1,2545.5,37711.0,2.6517e-05,38.044,44.794,79.052,46.511,74.386,1323.5,0.003212,87.747,0.56659,supercritical,H2O,C7732185,water,647.0,220.64,17.9,0.0558659217877095,1.3,11.536892675852068,0.00047465429999999997
841.1,2552.9,37748.0,2.6491e-05,38.029,44.792,79.027,46.515,74.341,1325.4,0.0031074,87.849,0.56741,supercritical,H2O,C7732185,water,647.0,220.64,17.9,0.0558659217877095,1.3,11.57043147208122,0.0004741889
841.1,2560.2,37785.0,2.6465e-05,38.015,44.79,79.002,46.519,74.296,1327.2,0.0030035,87.952,0.56822,supercritical,H2O,C7732185,water,647.0,220.64,17.9,0.0558659217877095,1.3,11.6035170413343,0.0004737235
841.1,2567.6,37822.0,2.644e-05,38.0,44.789,78.977,46.524,74.251,1329.1,0.0029004,88.053,0.56904,supercritical,H2O,C7732185,water,647.0,220.64,17.9,0.0558659217877095,1.3,11.637055837563452,0.000473276
841.1,2574.9,37859.0,2.6414e-05,37.986,44.787,78.952,46.528,74.206,1331.0,0.002798,88.155,0.56985,supercritical,H2O,C7732185,water,647.0,220.64,17.9,0.0558659217877095,1.3,11.670141406816535,0.0004728106
841.1,2582.3,37896.0,2.6388e-05,37.972,44.786,78.927,46.532,74.162,1332.9,0.0026963,88.256,0.57066,supercritical,H2O,C7732185,water,647.0,220.64,17.9,0.0558659217877095,1.3,11.703680203045687,0.00047234519999999995
841.1,2589.6,37932.0,2.6363e-05,37.957,44.784,78.902,46.536,74.118,1334.7,0.0025953,88.358,0.57147,supercritical,H2O,C7732185,water,647.0,220.64,17.9,0.0558659217877095,1.3,11.736765772298767,0.0004718977
841.1,2597.0,37969.0,2.6338e-05,37.943,44.783,78.877,46.54,74.075,1336.6,0.002495,88.459,0.57228,supercritical,H2O,C7732185,water,647.0,220.64,17.9,0.0558659217877095,1.3,11.77030456852792,0.0004714502
841.1,2604.3,38005.0,2.6312e-05,37.929,44.782,78.853,46.545,74.031,1338.5,0.0023954,88.559,0.57309,supercritical,H2O,C7732185,water,647.0,220.64,17.9,0.0558659217877095,1.3,11.803390137781003,0.0004709848
841.1,2611.7,38041.0,2.6287e-05,37.915,44.78,78.828,46.549,73.988,1340.3,0.0022965,88.66,0.5739,supercritical,H2O,C7732185,water,647.0,220.64,17.9,0.0558659217877095,1.3,11.836928934010151,0.0004705373
841.1,2619.0,38077.0,2.6263e-05,37.901,44.779,78.804,46.553,73.945,1342.2,0.0021983,88.76,0.5747,supercritical,H2O,C7732185,water,647.0,220.64,17.9,0.0558659217877095,1.3,11.870014503263235,0.00047010769999999996
841.1,2626.4,38113.0,2.6238e-05,37.887,44.778,78.78,46.557,73.902,1344.0,0.0021008,88.86,0.57551,supercritical,H2O,C7732185,water,647.0,220.64,17.9,0.0558659217877095,1.3,11.903553299492387,0.00046966019999999996
841.1,2633.7,38149.0,2.6213e-05,37.873,44.777,78.755,46.562,73.86,1345.9,0.002004,88.96,0.57631,supercritical,H2O,C7732185,water,647.0,220.64,17.9,0.0558659217877095,1.3,11.936638868745467,0.0004692127
841.1,2641.1,38184.0,2.6189e-05,37.859,44.776,78.731,46.566,73.818,1347.7,0.0019078,89.059,0.57711,supercritical,H2O,C7732185,water,647.0,220.64,17.9,0.0558659217877095,1.3,11.970177664974619,0.00046878309999999994
841.1,2648.4,38220.0,2.6164e-05,37.845,44.775,78.707,46.57,73.776,1349.6,0.0018123,89.159,0.57791,supercritical,H2O,C7732185,water,647.0,220.64,17.9,0.0558659217877095,1.3,12.003263234227703,0.00046833559999999994
841.1,2655.7,38255.0,2.614e-05,37.832,44.774,78.683,46.574,73.734,1351.4,0.0017174,89.258,0.57871,supercritical,H2O,C7732185,water,647.0,220.64,17.9,0.0558659217877095,1.3,12.036348803480783,0.000467906
841.1,2663.1,38291.0,2.6116e-05,37.818,44.773,78.659,46.579,73.693,1353.2,0.0016232,89.357,0.57951,supercritical,H2O,C7732185,water,647.0,220.64,17.9,0.0558659217877095,1.3,12.069887599709935,0.00046747639999999995
841.1,2670.4,38326.0,2.6092e-05,37.804,44.772,78.635,46.583,73.651,1355.1,0.0015296,89.455,0.5803,supercritical,H2O,C7732185,water,647.0,220.64,17.9,0.0558659217877095,1.3,12.102973168963018,0.0004670468
841.1,2677.8,38361.0,2.6068e-05,37.791,44.771,78.612,46.587,73.61,1356.9,0.0014367,89.554,0.5811,supercritical,H2O,C7732185,water,647.0,220.64,17.9,0.0558659217877095,1.3,12.13651196519217,0.00046661719999999997
841.1,2685.1,38396.0,2.6045e-05,37.777,44.771,78.588,46.591,73.57,1358.7,0.0013443,89.652,0.58189,supercritical,H2O,C7732185,water,647.0,220.64,17.9,0.0558659217877095,1.3,12.16959753444525,0.0004662054999999999
841.1,2692.5,38431.0,2.6021e-05,37.764,44.77,78.564,46.596,73.529,1360.5,0.0012526,89.75,0.58269,supercritical,H2O,C7732185,water,647.0,220.64,17.9,0.0558659217877095,1.3,12.203136330674402,0.00046577589999999996
841.1,2699.8,38465.0,2.5997e-05,37.75,44.769,78.541,46.6,73.489,1362.3,0.0011615,89.848,0.58348,supercritical,H2O,C7732185,water,647.0,220.64,17.9,0.0558659217877095,1.3,12.236221899927486,0.00046534629999999994
841.1,2707.2,38500.0,2.5974e-05,37.737,44.769,78.517,46.604,73.449,1364.1,0.0010711,89.945,0.58427,supercritical,H2O,C7732185,water,647.0,220.64,17.9,0.0558659217877095,1.3,12.269760696156634,0.00046493459999999995
841.1,2714.5,38534.0,2.5951e-05,37.724,44.768,78.494,46.608,73.409,1365.9,0.00098119,90.043,0.58506,supercritical,H2O,C7732185,water,647.0,220.64,17.9,0.0558659217877095,1.3,12.302846265409718,0.00046452289999999996
841.1,2721.9,38569.0,2.5928e-05,37.71,44.768,78.471,46.613,73.369,1367.7,0.00089191,90.14,0.58584,supercritical,H2O,C7732185,water,647.0,220.64,17.9,0.0558659217877095,1.3,12.33638506163887,0.0004641112
841.1,2729.2,38603.0,2.5905e-05,37.697,44.767,78.448,46.617,73.33,1369.5,0.00080323,90.237,0.58663,supercritical,H2O,C7732185,water,647.0,220.64,17.9,0.0558659217877095,1.3,12.36947063089195,0.0004636995
841.1,2736.6,38637.0,2.5882e-05,37.684,44.767,78.425,46.621,73.291,1371.3,0.00071513,90.334,0.58741,supercritical,H2O,C7732185,water,647.0,220.64,17.9,0.0558659217877095,1.3,12.403009427121102,0.0004632878
841.1,2743.9,38671.0,2.5859e-05,37.671,44.766,78.402,46.625,73.252,1373.1,0.00062762,90.43,0.5882,supercritical,H2O,C7732185,water,647.0,220.64,17.9,0.0558659217877095,1.3,12.436094996374186,0.0004628761
841.1,2751.3,38705.0,2.5836e-05,37.658,44.766,78.379,46.63,73.213,1374.9,0.00054068,90.526,0.58898,supercritical,H2O,C7732185,water,647.0,220.64,17.9,0.0558659217877095,1.3,12.469633792603338,0.00046246439999999997
841.1,2758.6,38739.0,2.5814e-05,37.645,44.766,78.356,46.634,73.175,1376.7,0.0004543,90.622,0.58976,supercritical,H2O,C7732185,water,647.0,220.64,17.9,0.0558659217877095,1.3,12.502719361856418,0.00046207059999999996
841.1,2766.0,38773.0,2.5791e-05,37.632,44.765,78.333,46.638,73.136,1378.5,0.0003685,90.718,0.59054,supercritical,H2O,C7732185,water,647.0,220.64,17.9,0.0558659217877095,1.3,12.53625815808557,0.00046165889999999997
841.1,2773.3,38806.0,2.5769e-05,37.619,44.765,78.31,46.642,73.098,1380.2,0.00028325,90.814,0.59132,supercritical,H2O,C7732185,water,647.0,220.64,17.9,0.0558659217877095,1.3,12.569343727338653,0.00046126509999999996
841.1,2780.7,38840.0,2.5747e-05,37.606,44.765,78.288,46.647,73.06,1382.0,0.00019856,90.909,0.5921,supercritical,H2O,C7732185,water,647.0,220.64,17.9,0.0558659217877095,1.3,12.602882523567803,0.00046087129999999995
841.1,2788.0,38873.0,2.5725e-05,37.593,44.765,78.265,46.651,73.023,1383.8,0.00011441,91.004,0.59288,supercritical,H2O,C7732185,water,647.0,220.64,17.9,0.0558659217877095,1.3,12.635968092820885,0.00046047749999999994
841.1,2795.4,38907.0,2.5703e-05,37.58,44.765,78.242,46.655,72.985,1385.5,3.0812e-05,91.099,0.59365,supercritical,H2O,C7732185,water,647.0,220.64,17.9,0.0558659217877095,1.3,12.669506889050037,0.0004600837