Temperature (K),Pressure (bar),Density (mol/m3),Volume (m3/mol),Internal Energy (kJ/mol),Enthalpy (kJ/mol),Entropy (J/mol*K),Cv (J/mol*K),Cp (J/mol*K),Sound Spd. (m/s),Joule-Thomson (K/bar),Viscosity (uPa*s),Therm. Cond. (W/m*K),Phase,substance,substance_id,substance_name,Tc,Pc,rhoc,Vmc,Tr,Pr,Vmr
608.36,674.58,11512.0,8.6866e-05,26.168,32.027,90.7,41.959,61.452,539.36,0.023287,48.918,0.071967,supercritical,CO2,C124389,carbon-dioxide,304.18,73.8,10.6,0.09433962264150944,2.0,9.140650406504067,0.0009207796
608.36,677.04,11540.0,8.6655e-05,26.157,32.024,90.659,41.964,61.463,540.25,0.02298,49.023,0.072082,supercritical,CO2,C124389,carbon-dioxide,304.18,73.8,10.6,0.09433962264150944,2.0,9.173983739837398,0.000918543
608.36,679.5,11568.0,8.6445e-05,26.146,32.02,90.618,41.969,61.473,541.15,0.022676,49.127,0.072196,supercritical,CO2,C124389,carbon-dioxide,304.18,73.8,10.6,0.09433962264150944,2.0,9.207317073170731,0.0009163169999999999
608.36,681.96,11596.0,8.6237e-05,26.136,32.017,90.578,41.974,61.483,542.04,0.022374,49.231,0.07231,supercritical,CO2,C124389,carbon-dioxide,304.18,73.8,10.6,0.09433962264150944,2.0,9.240650406504066,0.0009141121999999999
608.36,684.42,11624.0,8.6031e-05,26.126,32.014,90.538,41.979,61.493,542.93,0.022073,49.336,0.072424,supercritical,CO2,C124389,carbon-dioxide,304.18,73.8,10.6,0.09433962264150944,2.0,9.273983739837398,0.0009119286
608.36,686.88,11651.0,8.5826e-05,26.115,32.01,90.497,41.985,61.503,543.83,0.021774,49.44,0.072538,supercritical,CO2,C124389,carbon-dioxide,304.18,73.8,10.6,0.09433962264150944,2.0,9.307317073170733,0.0009097555999999999
608.36,689.33,11679.0,8.5623e-05,26.105,32.007,90.457,41.99,61.513,544.72,0.021477,49.545,0.072652,supercritical,CO2,C124389,carbon-dioxide,304.18,73.8,10.6,0.09433962264150944,2.0,9.340514905149053,0.0009076037999999999
608.36,691.79,11707.0,8.5422e-05,26.094,32.004,90.418,41.995,61.522,545.61,0.021182,49.649,0.072765,supercritical,CO2,C124389,carbon-dioxide,304.18,73.8,10.6,0.09433962264150944,2.0,9.373848238482385,0.0009054731999999999
608.36,694.25,11734.0,8.5222e-05,26.084,32.001,90.378,42.0,61.531,546.5,0.020889,49.753,0.072878,supercritical,CO2,C124389,carbon-dioxide,304.18,73.8,10.6,0.09433962264150944,2.0,9.407181571815718,0.0009033532
608.36,696.71,11761.0,8.5024e-05,26.074,31.998,90.338,42.005,61.541,547.4,0.020597,49.858,0.072991,supercritical,CO2,C124389,carbon-dioxide,304.18,73.8,10.6,0.09433962264150944,2.0,9.440514905149053,0.0009012544
608.36,699.17,11789.0,8.4827e-05,26.064,31.994,90.299,42.01,61.55,548.29,0.020307,49.962,0.073104,supercritical,CO2,C124389,carbon-dioxide,304.18,73.8,10.6,0.09433962264150944,2.0,9.473848238482384,0.0008991662
608.36,701.63,11816.0,8.4632e-05,26.053,31.991,90.26,42.015,61.559,549.18,0.020019,50.067,0.073217,supercritical,CO2,C124389,carbon-dioxide,304.18,73.8,10.6,0.09433962264150944,2.0,9.50718157181572,0.0008970991999999999
608.36,704.08,11843.0,8.4438e-05,26.043,31.988,90.221,42.02,61.568,550.07,0.019733,50.171,0.07333,supercritical,CO2,C124389,carbon-dioxide,304.18,73.8,10.6,0.09433962264150944,2.0,9.54037940379404,0.0008950427999999999
608.36,706.54,11870.0,8.4246e-05,26.033,31.985,90.182,42.025,61.576,550.96,0.019448,50.276,0.073442,supercritical,CO2,C124389,carbon-dioxide,304.18,73.8,10.6,0.09433962264150944,2.0,9.573712737127371,0.0008930076
608.36,709.0,11897.0,8.4056e-05,26.023,31.982,90.143,42.03,61.585,551.86,0.019166,50.38,0.073554,supercritical,CO2,C124389,carbon-dioxide,304.18,73.8,10.6,0.09433962264150944,2.0,9.607046070460704,0.0008909935999999999
608.36,711.46,11924.0,8.3866e-05,26.013,31.98,90.104,42.035,61.593,552.75,0.018885,50.485,0.073666,supercritical,CO2,C124389,carbon-dioxide,304.18,73.8,10.6,0.09433962264150944,2.0,9.64037940379404,0.0008889795999999999
608.36,713.92,11950.0,8.3679e-05,26.003,31.977,90.066,42.04,61.602,553.64,0.018605,50.589,0.073778,supercritical,CO2,C124389,carbon-dioxide,304.18,73.8,10.6,0.09433962264150944,2.0,9.67371273712737,0.0008869973999999999
608.36,716.38,11977.0,8.3492e-05,25.993,31.974,90.027,42.045,61.61,554.53,0.018327,50.693,0.073889,supercritical,CO2,C124389,carbon-dioxide,304.18,73.8,10.6,0.09433962264150944,2.0,9.707046070460706,0.0008850152
608.36,718.83,12004.0,8.3308e-05,25.983,31.971,89.989,42.05,61.618,555.42,0.018051,50.798,0.074,supercritical,CO2,C124389,carbon-dioxide,304.18,73.8,10.6,0.09433962264150944,2.0,9.740243902439026,0.0008830647999999999
608.36,721.29,12030.0,8.3124e-05,25.973,31.968,89.951,42.055,61.626,556.31,0.017777,50.902,0.074112,supercritical,CO2,C124389,carbon-dioxide,304.18,73.8,10.6,0.09433962264150944,2.0,9.773577235772358,0.0008811143999999999
608.36,723.75,12057.0,8.2942e-05,25.963,31.966,89.913,42.06,61.634,557.2,0.017504,51.007,0.074223,supercritical,CO2,C124389,carbon-dioxide,304.18,73.8,10.6,0.09433962264150944,2.0,9.80691056910569,0.0008791852
608.36,726.21,12083.0,8.2761e-05,25.953,31.963,89.875,42.065,61.641,558.09,0.017233,51.111,0.074333,supercritical,CO2,C124389,carbon-dioxide,304.18,73.8,10.6,0.09433962264150944,2.0,9.840243902439026,0.0008772666
608.36,728.67,12109.0,8.2582e-05,25.943,31.961,89.838,42.07,61.649,558.98,0.016964,51.216,0.074444,supercritical,CO2,C124389,carbon-dioxide,304.18,73.8,10.6,0.09433962264150944,2.0,9.873577235772357,0.0008753691999999999
608.36,731.13,12135.0,8.2404e-05,25.933,31.958,89.8,42.074,61.656,559.87,0.016696,51.32,0.074554,supercritical,CO2,C124389,carbon-dioxide,304.18,73.8,10.6,0.09433962264150944,2.0,9.906910569105692,0.0008734824
608.36,733.58,12161.0,8.2227e-05,25.923,31.956,89.763,42.079,61.664,560.76,0.01643,51.425,0.074665,supercritical,CO2,C124389,carbon-dioxide,304.18,73.8,10.6,0.09433962264150944,2.0,9.940108401084013,0.0008716061999999999
608.36,736.04,12187.0,8.2052e-05,25.914,31.953,89.725,42.084,61.671,561.65,0.016166,51.529,0.074775,supercritical,CO2,C124389,carbon-dioxide,304.18,73.8,10.6,0.09433962264150944,2.0,9.973441734417344,0.0008697512000000001
608.36,738.5,12213.0,8.1878e-05,25.904,31.951,89.688,42.089,61.678,562.54,0.015903,51.634,0.074885,supercritical,CO2,C124389,carbon-dioxide,304.18,73.8,10.6,0.09433962264150944,2.0,10.006775067750677,0.0008679067999999999
608.36,740.96,12239.0,8.1705e-05,25.894,31.948,89.651,42.094,61.685,563.42,0.015641,51.738,0.074994,supercritical,CO2,C124389,carbon-dioxide,304.18,73.8,10.6,0.09433962264150944,2.0,10.040108401084012,0.000866073
608.36,743.42,12265.0,8.1534e-05,25.885,31.946,89.614,42.099,61.692,564.31,0.015382,51.843,0.075104,supercritical,CO2,C124389,carbon-dioxide,304.18,73.8,10.6,0.09433962264150944,2.0,10.073441734417344,0.0008642603999999999
608.36,745.88,12291.0,8.1363e-05,25.875,31.944,89.578,42.104,61.698,565.2,0.015123,51.947,0.075213,supercritical,CO2,C124389,carbon-dioxide,304.18,73.8,10.6,0.09433962264150944,2.0,10.106775067750679,0.0008624478
608.36,748.33,12316.0,8.1194e-05,25.865,31.941,89.541,42.108,61.705,566.09,0.014867,52.052,0.075322,supercritical,CO2,C124389,carbon-dioxide,304.18,73.8,10.6,0.09433962264150944,2.0,10.139972899728999,0.0008606563999999999
608.36,750.79,12342.0,8.1027e-05,25.856,31.939,89.505,42.113,61.712,566.97,0.014612,52.156,0.075431,supercritical,CO2,C124389,carbon-dioxide,304.18,73.8,10.6,0.09433962264150944,2.0,10.17330623306233,0.0008588861999999999
608.36,753.25,12367.0,8.086e-05,25.846,31.937,89.468,42.118,61.718,567.86,0.014358,52.261,0.07554,supercritical,CO2,C124389,carbon-dioxide,304.18,73.8,10.6,0.09433962264150944,2.0,10.206639566395664,0.0008571159999999999
608.36,755.71,12392.0,8.0695e-05,25.837,31.935,89.432,42.123,61.724,568.75,0.014106,52.365,0.075649,supercritical,CO2,C124389,carbon-dioxide,304.18,73.8,10.6,0.09433962264150944,2.0,10.239972899728999,0.0008553669999999999
608.36,758.17,12418.0,8.0531e-05,25.827,31.933,89.396,42.128,61.731,569.63,0.013855,52.47,0.075757,supercritical,CO2,C124389,carbon-dioxide,304.18,73.8,10.6,0.09433962264150944,2.0,10.27330623306233,0.0008536286
608.36,760.63,12443.0,8.0368e-05,25.818,31.931,89.36,42.132,61.737,570.52,0.013606,52.574,0.075865,supercritical,CO2,C124389,carbon-dioxide,304.18,73.8,10.6,0.09433962264150944,2.0,10.306639566395665,0.0008519007999999999
608.36,763.08,12468.0,8.0206e-05,25.808,31.928,89.324,42.137,61.743,571.4,0.013359,52.678,0.075973,supercritical,CO2,C124389,carbon-dioxide,304.18,73.8,10.6,0.09433962264150944,2.0,10.339837398373986,0.0008501835999999999
608.36,765.54,12493.0,8.0045e-05,25.799,31.926,89.289,42.142,61.749,572.29,0.013113,52.783,0.076081,supercritical,CO2,C124389,carbon-dioxide,304.18,73.8,10.6,0.09433962264150944,2.0,10.373170731707317,0.0008484769999999999
608.36,768.0,12518.0,7.9885e-05,25.789,31.924,89.253,42.147,61.754,573.17,0.012868,52.887,0.076189,supercritical,CO2,C124389,carbon-dioxide,304.18,73.8,10.6,0.09433962264150944,2.0,10.40650406504065,0.0008467809999999999
608.36,770.46,12543.0,7.9727e-05,25.78,31.923,89.218,42.152,61.76,574.06,0.012625,52.992,0.076297,supercritical,CO2,C124389,carbon-dioxide,304.18,73.8,10.6,0.09433962264150944,2.0,10.439837398373985,0.0008451061999999999
608.36,772.92,12568.0,7.957e-05,25.771,31.921,89.182,42.156,61.766,574.94,0.012383,53.096,0.076404,supercritical,CO2,C124389,carbon-dioxide,304.18,73.8,10.6,0.09433962264150944,2.0,10.473170731707317,0.0008434419999999999
608.36,775.38,12592.0,7.9414e-05,25.761,31.919,89.147,42.161,61.771,575.82,0.012143,53.2,0.076511,supercritical,CO2,C124389,carbon-dioxide,304.18,73.8,10.6,0.09433962264150944,2.0,10.506504065040652,0.0008417883999999999
608.36,777.83,12617.0,7.9258e-05,25.752,31.917,89.112,42.166,61.777,576.71,0.011904,53.305,0.076618,supercritical,CO2,C124389,carbon-dioxide,304.18,73.8,10.6,0.09433962264150944,2.0,10.539701897018972,0.0008401348
608.36,780.29,12642.0,7.9104e-05,25.743,31.915,89.077,42.17,61.782,577.59,0.011667,53.409,0.076725,supercritical,CO2,C124389,carbon-dioxide,304.18,73.8,10.6,0.09433962264150944,2.0,10.573035230352303,0.0008385023999999999
608.36,782.75,12666.0,7.8951e-05,25.733,31.913,89.042,42.175,61.787,578.47,0.011431,53.513,0.076832,supercritical,CO2,C124389,carbon-dioxide,304.18,73.8,10.6,0.09433962264150944,2.0,10.606368563685637,0.0008368805999999999
608.36,785.21,12690.0,7.8799e-05,25.724,31.912,89.008,42.18,61.793,579.35,0.011196,53.617,0.076938,supercritical,CO2,C124389,carbon-dioxide,304.18,73.8,10.6,0.09433962264150944,2.0,10.639701897018972,0.0008352694
608.36,787.67,12715.0,7.8649e-05,25.715,31.91,88.973,42.185,61.798,580.23,0.010963,53.722,0.077045,supercritical,CO2,C124389,carbon-dioxide,304.18,73.8,10.6,0.09433962264150944,2.0,10.673035230352303,0.0008336794
608.36,790.12,12739.0,7.8499e-05,25.706,31.908,88.939,42.189,61.803,581.11,0.010731,53.826,0.077151,supercritical,CO2,C124389,carbon-dioxide,304.18,73.8,10.6,0.09433962264150944,2.0,10.706233062330623,0.0008320893999999999
608.36,792.58,12763.0,7.835e-05,25.697,31.907,88.904,42.194,61.808,581.99,0.010501,53.93,0.077257,supercritical,CO2,C124389,carbon-dioxide,304.18,73.8,10.6,0.09433962264150944,2.0,10.739566395663958,0.0008305099999999999
608.36,795.04,12787.0,7.8202e-05,25.688,31.905,88.87,42.199,61.812,582.87,0.010272,54.034,0.077363,supercritical,CO2,C124389,carbon-dioxide,304.18,73.8,10.6,0.09433962264150944,2.0,10.77289972899729,0.0008289411999999999
608.36,797.5,12811.0,7.8055e-05,25.679,31.904,88.836,42.203,61.817,583.75,0.010044,54.138,0.077468,supercritical,CO2,C124389,carbon-dioxide,304.18,73.8,10.6,0.09433962264150944,2.0,10.806233062330623,0.0008273829999999999
608.36,799.96,12835.0,7.791e-05,25.67,31.902,88.802,42.208,61.822,584.63,0.0098175,54.243,0.077574,supercritical,CO2,C124389,carbon-dioxide,304.18,73.8,10.6,0.09433962264150944,2.0,10.839566395663958,0.000825846
608.36,802.42,12859.0,7.7765e-05,25.661,31.901,88.768,42.213,61.826,585.51,0.0095925,54.347,0.077679,supercritical,CO2,C124389,carbon-dioxide,304.18,73.8,10.6,0.09433962264150944,2.0,10.87289972899729,0.000824309
608.36,804.87,12883.0,7.7621e-05,25.652,31.899,88.734,42.217,61.831,586.39,0.0093688,54.451,0.077784,supercritical,CO2,C124389,carbon-dioxide,304.18,73.8,10.6,0.09433962264150944,2.0,10.90609756097561,0.0008227825999999999
608.36,807.33,12907.0,7.7478e-05,25.643,31.898,88.701,42.222,61.835,587.26,0.0091464,54.555,0.077889,supercritical,CO2,C124389,carbon-dioxide,304.18,73.8,10.6,0.09433962264150944,2.0,10.939430894308945,0.0008212668
608.36,809.79,12931.0,7.7336e-05,25.634,31.896,88.667,42.226,61.84,588.14,0.0089254,54.659,0.077994,supercritical,CO2,C124389,carbon-dioxide,304.18,73.8,10.6,0.09433962264150944,2.0,10.972764227642276,0.0008197616
608.36,812.25,12954.0,7.7195e-05,25.625,31.895,88.634,42.231,61.844,589.02,0.0087056,54.763,0.078099,supercritical,CO2,C124389,carbon-dioxide,304.18,73.8,10.6,0.09433962264150944,2.0,11.00609756097561,0.0008182669999999999
608.36,814.71,12978.0,7.7055e-05,25.616,31.894,88.6,42.236,61.848,589.89,0.0084872,54.867,0.078203,supercritical,CO2,C124389,carbon-dioxide,304.18,73.8,10.6,0.09433962264150944,2.0,11.039430894308945,0.000816783
608.36,817.17,13001.0,7.6916e-05,25.607,31.893,88.567,42.24,61.852,590.77,0.00827,54.971,0.078308,supercritical,CO2,C124389,carbon-dioxide,304.18,73.8,10.6,0.09433962264150944,2.0,11.072764227642276,0.0008153095999999998
608.36,819.62,13025.0,7.6778e-05,25.598,31.891,88.534,42.245,61.856,591.64,0.0080542,55.075,0.078412,supercritical,CO2,C124389,carbon-dioxide,304.18,73.8,10.6,0.09433962264150944,2.0,11.105962059620596,0.0008138468
608.36,822.08,13048.0,7.6641e-05,25.59,31.89,88.501,42.249,61.86,592.51,0.0078395,55.179,0.078516,supercritical,CO2,C124389,carbon-dioxide,304.18,73.8,10.6,0.09433962264150944,2.0,11.139295392953931,0.0008123945999999999
608.36,824.54,13071.0,7.6504e-05,25.581,31.889,88.468,42.254,61.864,593.39,0.0076262,55.283,0.07862,supercritical,CO2,C124389,carbon-dioxide,304.18,73.8,10.6,0.09433962264150944,2.0,11.172628726287263,0.0008109424
608.36,827.0,13094.0,7.6369e-05,25.572,31.888,88.435,42.259,61.868,594.26,0.0074141,55.387,0.078723,supercritical,CO2,C124389,carbon-dioxide,304.18,73.8,10.6,0.09433962264150944,2.0,11.205962059620596,0.0008095114
608.36,829.46,13117.0,7.6234e-05,25.563,31.887,88.403,42.263,61.871,595.13,0.0072032,55.49,0.078827,supercritical,CO2,C124389,carbon-dioxide,304.18,73.8,10.6,0.09433962264150944,2.0,11.239295392953931,0.0008080804
608.36,831.92,13141.0,7.61e-05,25.555,31.886,88.37,42.268,61.875,596.01,0.0069936,55.594,0.07893,supercritical,CO2,C124389,carbon-dioxide,304.18,73.8,10.6,0.09433962264150944,2.0,11.272628726287262,0.0008066600000000001
608.36,834.37,13164.0,7.5967e-05,25.546,31.884,88.338,42.272,61.879,596.88,0.0067852,55.698,0.079033,supercritical,CO2,C124389,carbon-dioxide,304.18,73.8,10.6,0.09433962264150944,2.0,11.305826558265583,0.0008052501999999999
608.36,836.83,13186.0,7.5835e-05,25.537,31.883,88.305,42.277,61.882,597.75,0.0065781,55.802,0.079136,supercritical,CO2,C124389,carbon-dioxide,304.18,73.8,10.6,0.09433962264150944,2.0,11.339159891598918,0.0008038509999999998
608.36,839.29,13209.0,7.5704e-05,25.529,31.882,88.273,42.281,61.886,598.62,0.0063721,55.906,0.079239,supercritical,CO2,C124389,carbon-dioxide,304.18,73.8,10.6,0.09433962264150944,2.0,11.37249322493225,0.0008024624
608.36,841.75,13232.0,7.5574e-05,25.52,31.882,88.241,42.286,61.889,599.49,0.0061673,56.009,0.079342,supercritical,CO2,C124389,carbon-dioxide,304.18,73.8,10.6,0.09433962264150944,2.0,11.405826558265582,0.0008010844
608.36,844.21,13255.0,7.5444e-05,25.512,31.881,88.209,42.29,61.892,600.36,0.0059637,56.113,0.079445,supercritical,CO2,C124389,carbon-dioxide,304.18,73.8,10.6,0.09433962264150944,2.0,11.439159891598917,0.0007997064
608.36,846.67,13277.0,7.5316e-05,25.503,31.88,88.177,42.295,61.896,601.22,0.0057614,56.216,0.079547,supercritical,CO2,C124389,carbon-dioxide,304.18,73.8,10.6,0.09433962264150944,2.0,11.472493224932249,0.0007983495999999999
608.36,849.12,13300.0,7.5188e-05,25.494,31.879,88.145,42.3,61.899,602.09,0.0055602,56.32,0.079649,supercritical,CO2,C124389,carbon-dioxide,304.18,73.8,10.6,0.09433962264150944,2.0,11.50569105691057,0.0007969927999999999
608.36,851.58,13323.0,7.5061e-05,25.486,31.878,88.114,42.304,61.902,602.96,0.0053601,56.424,0.079752,supercritical,CO2,C124389,carbon-dioxide,304.18,73.8,10.6,0.09433962264150944,2.0,11.539024390243904,0.0007956466
608.36,854.04,13345.0,7.4934e-05,25.478,31.877,88.082,42.309,61.905,603.83,0.0051612,56.527,0.079854,supercritical,CO2,C124389,carbon-dioxide,304.18,73.8,10.6,0.09433962264150944,2.0,11.572357723577236,0.0007943003999999999
608.36,856.5,13367.0,7.4809e-05,25.469,31.876,88.05,42.313,61.908,604.69,0.0049635,56.631,0.079955,supercritical,CO2,C124389,carbon-dioxide,304.18,73.8,10.6,0.09433962264150944,2.0,11.605691056910569,0.0007929753999999999
608.36,858.96,13390.0,7.4684e-05,25.461,31.876,88.019,42.318,61.911,605.56,0.0047669,56.734,0.080057,supercritical,CO2,C124389,carbon-dioxide,304.18,73.8,10.6,0.09433962264150944,2.0,11.639024390243904,0.0007916504
608.36,861.42,13412.0,7.456e-05,25.452,31.875,87.988,42.322,61.914,606.42,0.0045715,56.838,0.080159,supercritical,CO2,C124389,carbon-dioxide,304.18,73.8,10.6,0.09433962264150944,2.0,11.672357723577235,0.000790336
608.36,863.87,13434.0,7.4437e-05,25.444,31.874,87.957,42.327,61.917,607.29,0.0043771,56.941,0.08026,supercritical,CO2,C124389,carbon-dioxide,304.18,73.8,10.6,0.09433962264150944,2.0,11.705555555555556,0.0007890322
608.36,866.33,13456.0,7.4315e-05,25.436,31.874,87.925,42.331,61.92,608.15,0.0041839,57.044,0.080361,supercritical,CO2,C124389,carbon-dioxide,304.18,73.8,10.6,0.09433962264150944,2.0,11.73888888888889,0.0007877389999999999
608.36,868.79,13478.0,7.4193e-05,25.427,31.873,87.894,42.335,61.922,609.01,0.0039919,57.148,0.080462,supercritical,CO2,C124389,carbon-dioxide,304.18,73.8,10.6,0.09433962264150944,2.0,11.772222222222222,0.0007864457999999999
608.36,871.25,13500.0,7.4072e-05,25.419,31.872,87.863,42.34,61.925,609.88,0.0038009,57.251,0.080563,supercritical,CO2,C124389,carbon-dioxide,304.18,73.8,10.6,0.09433962264150944,2.0,11.805555555555555,0.0007851632
608.36,873.71,13522.0,7.3952e-05,25.411,31.872,87.833,42.344,61.928,610.74,0.003611,57.354,0.080664,supercritical,CO2,C124389,carbon-dioxide,304.18,73.8,10.6,0.09433962264150944,2.0,11.83888888888889,0.0007838912
608.36,876.17,13544.0,7.3833e-05,25.402,31.871,87.802,42.349,61.93,611.6,0.0034222,57.457,0.080765,supercritical,CO2,C124389,carbon-dioxide,304.18,73.8,10.6,0.09433962264150944,2.0,11.872222222222222,0.0007826297999999999
608.36,878.62,13566.0,7.3714e-05,25.394,31.871,87.771,42.353,61.933,612.46,0.0032345,57.561,0.080865,supercritical,CO2,C124389,carbon-dioxide,304.18,73.8,10.6,0.09433962264150944,2.0,11.905420054200542,0.0007813684
608.36,881.08,13588.0,7.3596e-05,25.386,31.87,87.741,42.358,61.935,613.32,0.0030478,57.664,0.080965,supercritical,CO2,C124389,carbon-dioxide,304.18,73.8,10.6,0.09433962264150944,2.0,11.938753387533877,0.0007801176
608.36,883.54,13609.0,7.3479e-05,25.378,31.87,87.71,42.362,61.938,614.18,0.0028623,57.767,0.081066,supercritical,CO2,C124389,carbon-dioxide,304.18,73.8,10.6,0.09433962264150944,2.0,11.972086720867209,0.0007788774
608.36,886.0,13631.0,7.3362e-05,25.37,31.87,87.68,42.367,61.94,615.04,0.0026777,57.87,0.081166,supercritical,CO2,C124389,carbon-dioxide,304.18,73.8,10.6,0.09433962264150944,2.0,12.005420054200542,0.0007776372
608.36,888.46,13653.0,7.3247e-05,25.361,31.869,87.65,42.371,61.942,615.9,0.0024943,57.973,0.081266,supercritical,CO2,C124389,carbon-dioxide,304.18,73.8,10.6,0.09433962264150944,2.0,12.038753387533877,0.0007764181999999999
608.36,890.92,13674.0,7.3131e-05,25.353,31.869,87.619,42.375,61.945,616.75,0.0023118,58.076,0.081366,supercritical,CO2,C124389,carbon-dioxide,304.18,73.8,10.6,0.09433962264150944,2.0,12.072086720867208,0.0007751886
608.36,893.37,13695.0,7.3017e-05,25.345,31.868,87.589,42.38,61.947,617.61,0.0021305,58.179,0.081465,supercritical,CO2,C124389,carbon-dioxide,304.18,73.8,10.6,0.09433962264150944,2.0,12.105284552845529,0.0007739801999999999