Temperature (K),Pressure (bar),Density (mol/m3),Volume (m3/mol),Internal Energy (kJ/mol),Enthalpy (kJ/mol),Entropy (J/mol*K),Cv (J/mol*K),Cp (J/mol*K),Sound Spd. (m/s),Joule-Thomson (K/bar),Viscosity (uPa*s),Therm. Cond. (W/m*K),Phase,substance,substance_id,substance_name,Tc,Pc,rhoc,Vmc,Tr,Pr,Vmr
309.16,392.75,14391.0,6.9489e-05,4.3769,7.1061,151.06,22.868,41.68,464.31,0.039942,36.526,0.051645,supercritical,O2,C7782447,oxygen,154.58,50.43,13.6,0.07352941176470588,2.0,7.788023002181242,0.0009450503999999999
309.16,394.12,14427.0,6.9315e-05,4.372,7.1038,151.02,22.872,41.684,465.01,0.039529,36.591,0.051739,supercritical,O2,C7782447,oxygen,154.58,50.43,13.6,0.07352941176470588,2.0,7.81518937140591,0.000942684
309.16,395.49,14463.0,6.9143e-05,4.3671,7.1016,150.99,22.875,41.688,465.72,0.039118,36.656,0.051832,supercritical,O2,C7782447,oxygen,154.58,50.43,13.6,0.07352941176470588,2.0,7.842355740630577,0.0009403447999999999
309.16,396.85,14498.0,6.8973e-05,4.3622,7.0994,150.95,22.878,41.693,466.43,0.038709,36.722,0.051926,supercritical,O2,C7782447,oxygen,154.58,50.43,13.6,0.07352941176470588,2.0,7.869323815189372,0.0009380328
309.16,398.21,14534.0,6.8803e-05,4.3573,7.0972,150.91,22.881,41.697,467.13,0.038302,36.787,0.052019,supercritical,O2,C7782447,oxygen,154.58,50.43,13.6,0.07352941176470588,2.0,7.8962918897481655,0.0009357208
309.16,399.58,14570.0,6.8635e-05,4.3525,7.095,150.87,22.884,41.7,467.84,0.037898,36.852,0.052112,supercritical,O2,C7782447,oxygen,154.58,50.43,13.6,0.07352941176470588,2.0,7.9234582589728335,0.0009334359999999999
309.16,400.94,14605.0,6.8469e-05,4.3476,7.0929,150.84,22.887,41.704,468.55,0.037496,36.917,0.052205,supercritical,O2,C7782447,oxygen,154.58,50.43,13.6,0.07352941176470588,2.0,7.950426333531628,0.0009311784
309.16,402.31,14641.0,6.8303e-05,4.3428,7.0907,150.8,22.89,41.708,469.25,0.037097,36.982,0.052298,supercritical,O2,C7782447,oxygen,154.58,50.43,13.6,0.07352941176470588,2.0,7.977592702756296,0.0009289208
309.16,403.68,14676.0,6.8139e-05,4.338,7.0886,150.76,22.894,41.711,469.96,0.0367,37.047,0.052391,supercritical,O2,C7782447,oxygen,154.58,50.43,13.6,0.07352941176470588,2.0,8.004759071980963,0.0009266904
309.16,405.04,14711.0,6.7977e-05,4.3332,7.0866,150.73,22.897,41.714,470.67,0.036305,37.112,0.052484,supercritical,O2,C7782447,oxygen,154.58,50.43,13.6,0.07352941176470588,2.0,8.031727146539758,0.0009244872000000001
309.16,406.4,14746.0,6.7815e-05,4.3285,7.0845,150.69,22.9,41.718,471.38,0.035912,37.177,0.052577,supercritical,O2,C7782447,oxygen,154.58,50.43,13.6,0.07352941176470588,2.0,8.058695221098551,0.000922284
309.16,407.77,14781.0,6.7655e-05,4.3237,7.0825,150.65,22.903,41.721,472.08,0.035521,37.242,0.052669,supercritical,O2,C7782447,oxygen,154.58,50.43,13.6,0.07352941176470588,2.0,8.08586159032322,0.000920108
309.16,409.13,14816.0,6.7496e-05,4.319,7.0805,150.62,22.906,41.724,472.79,0.035133,37.307,0.052762,supercritical,O2,C7782447,oxygen,154.58,50.43,13.6,0.07352941176470588,2.0,8.112829664882014,0.0009179456000000001
309.16,410.5,14850.0,6.7338e-05,4.3142,7.0785,150.58,22.909,41.726,473.5,0.034747,37.372,0.052854,supercritical,O2,C7782447,oxygen,154.58,50.43,13.6,0.07352941176470588,2.0,8.139996034106682,0.0009157967999999999
309.16,411.87,14885.0,6.7182e-05,4.3095,7.0765,150.54,22.912,41.729,474.21,0.034363,37.436,0.052946,supercritical,O2,C7782447,oxygen,154.58,50.43,13.6,0.07352941176470588,2.0,8.16716240333135,0.0009136751999999999
309.16,413.23,14920.0,6.7026e-05,4.3048,7.0746,150.51,22.915,41.732,474.92,0.033982,37.501,0.053038,supercritical,O2,C7782447,oxygen,154.58,50.43,13.6,0.07352941176470588,2.0,8.194130477890145,0.0009115536
309.16,414.6,14954.0,6.6872e-05,4.3001,7.0726,150.47,22.918,41.734,475.62,0.033602,37.566,0.05313,supercritical,O2,C7782447,oxygen,154.58,50.43,13.6,0.07352941176470588,2.0,8.221296847114813,0.0009094592
309.16,415.96,14988.0,6.6719e-05,4.2955,7.0707,150.44,22.921,41.736,476.33,0.033225,37.63,0.053222,supercritical,O2,C7782447,oxygen,154.58,50.43,13.6,0.07352941176470588,2.0,8.248264921673607,0.0009073783999999999
309.16,417.32,15022.0,6.6567e-05,4.2908,7.0689,150.4,22.924,41.739,477.04,0.03285,37.695,0.053314,supercritical,O2,C7782447,oxygen,154.58,50.43,13.6,0.07352941176470588,2.0,8.2752329962324,0.0009053112
309.16,418.69,15056.0,6.6417e-05,4.2862,7.067,150.37,22.927,41.741,477.75,0.032477,37.759,0.053406,supercritical,O2,C7782447,oxygen,154.58,50.43,13.6,0.07352941176470588,2.0,8.302399365457068,0.0009032711999999999
309.16,420.06,15090.0,6.6267e-05,4.2816,7.0651,150.33,22.93,41.743,478.46,0.032106,37.823,0.053498,supercritical,O2,C7782447,oxygen,154.58,50.43,13.6,0.07352941176470588,2.0,8.329565734681736,0.0009012311999999999
309.16,421.42,15124.0,6.6119e-05,4.277,7.0633,150.3,22.933,41.745,479.16,0.031737,37.888,0.053589,supercritical,O2,C7782447,oxygen,154.58,50.43,13.6,0.07352941176470588,2.0,8.356533809240531,0.0008992183999999999
309.16,422.79,15158.0,6.5972e-05,4.2724,7.0615,150.26,22.936,41.746,479.87,0.03137,37.952,0.053681,supercritical,O2,C7782447,oxygen,154.58,50.43,13.6,0.07352941176470588,2.0,8.3837001784652,0.0008972192
309.16,424.15,15192.0,6.5825e-05,4.2678,7.0598,150.23,22.939,41.748,480.58,0.031006,38.016,0.053772,supercritical,O2,C7782447,oxygen,154.58,50.43,13.6,0.07352941176470588,2.0,8.410668253023994,0.00089522
309.16,425.51,15225.0,6.568e-05,4.2632,7.058,150.19,22.942,41.749,481.29,0.030643,38.08,0.053864,supercritical,O2,C7782447,oxygen,154.58,50.43,13.6,0.07352941176470588,2.0,8.437636327582787,0.0008932479999999999
309.16,426.88,15259.0,6.5536e-05,4.2587,7.0563,150.16,22.945,41.751,482.0,0.030283,38.144,0.053955,supercritical,O2,C7782447,oxygen,154.58,50.43,13.6,0.07352941176470588,2.0,8.464802696807455,0.0008912896000000001
309.16,428.25,15292.0,6.5393e-05,4.2541,7.0545,150.12,22.948,41.752,482.7,0.029924,38.208,0.054046,supercritical,O2,C7782447,oxygen,154.58,50.43,13.6,0.07352941176470588,2.0,8.491969066032123,0.0008893448
309.16,429.61,15325.0,6.5251e-05,4.2496,7.0529,150.09,22.951,41.753,483.41,0.029568,38.272,0.054137,supercritical,O2,C7782447,oxygen,154.58,50.43,13.6,0.07352941176470588,2.0,8.518937140590918,0.0008874136
309.16,430.98,15359.0,6.511e-05,4.2451,7.0512,150.05,22.954,41.755,484.12,0.029213,38.336,0.054228,supercritical,O2,C7782447,oxygen,154.58,50.43,13.6,0.07352941176470588,2.0,8.546103509815586,0.000885496
309.16,432.34,15392.0,6.4971e-05,4.2406,7.0495,150.02,22.957,41.756,484.83,0.028861,38.4,0.054319,supercritical,O2,C7782447,oxygen,154.58,50.43,13.6,0.07352941176470588,2.0,8.57307158437438,0.0008836056
309.16,433.7,15425.0,6.4832e-05,4.2361,7.0479,149.99,22.96,41.756,485.53,0.028511,38.464,0.054409,supercritical,O2,C7782447,oxygen,154.58,50.43,13.6,0.07352941176470588,2.0,8.600039658933175,0.0008817152
309.16,435.07,15457.0,6.4694e-05,4.2316,7.0463,149.95,22.963,41.757,486.24,0.028162,38.528,0.0545,supercritical,O2,C7782447,oxygen,154.58,50.43,13.6,0.07352941176470588,2.0,8.627206028157843,0.0008798384
309.16,436.44,15490.0,6.4557e-05,4.2272,7.0447,149.92,22.966,41.758,486.95,0.027816,38.592,0.05459,supercritical,O2,C7782447,oxygen,154.58,50.43,13.6,0.07352941176470588,2.0,8.654372397382511,0.0008779752
309.16,437.8,15523.0,6.4421e-05,4.2227,7.0431,149.88,22.969,41.759,487.66,0.027472,38.655,0.054681,supercritical,O2,C7782447,oxygen,154.58,50.43,13.6,0.07352941176470588,2.0,8.681340471941304,0.0008761255999999999
309.16,439.17,15555.0,6.4286e-05,4.2183,7.0415,149.85,22.972,41.759,488.36,0.027129,38.719,0.054771,supercritical,O2,C7782447,oxygen,154.58,50.43,13.6,0.07352941176470588,2.0,8.708506841165972,0.0008742896
309.16,440.53,15588.0,6.4153e-05,4.2139,7.04,149.82,22.975,41.76,489.07,0.026789,38.782,0.054861,supercritical,O2,C7782447,oxygen,154.58,50.43,13.6,0.07352941176470588,2.0,8.735474915724767,0.0008724807999999999
309.16,441.89,15620.0,6.402e-05,4.2095,7.0385,149.78,22.978,41.76,489.78,0.02645,38.846,0.054952,supercritical,O2,C7782447,oxygen,154.58,50.43,13.6,0.07352941176470588,2.0,8.762442990283562,0.000870672
309.16,443.26,15652.0,6.3888e-05,4.2051,7.037,149.75,22.981,41.76,490.49,0.026113,38.909,0.055042,supercritical,O2,C7782447,oxygen,154.58,50.43,13.6,0.07352941176470588,2.0,8.78960935950823,0.0008688767999999999
309.16,444.62,15685.0,6.3757e-05,4.2007,7.0355,149.72,22.984,41.76,491.19,0.025779,38.973,0.055132,supercritical,O2,C7782447,oxygen,154.58,50.43,13.6,0.07352941176470588,2.0,8.816577434067023,0.0008670952000000001
309.16,445.99,15717.0,6.3626e-05,4.1964,7.0341,149.69,22.986,41.76,491.9,0.025446,39.036,0.055221,supercritical,O2,C7782447,oxygen,154.58,50.43,13.6,0.07352941176470588,2.0,8.84374380329169,0.0008653136
309.16,447.36,15749.0,6.3497e-05,4.192,7.0326,149.65,22.989,41.76,492.61,0.025115,39.099,0.055311,supercritical,O2,C7782447,oxygen,154.58,50.43,13.6,0.07352941176470588,2.0,8.870910172516359,0.0008635592
309.16,448.72,15781.0,6.3369e-05,4.1877,7.0312,149.62,22.992,41.76,493.31,0.024786,39.163,0.055401,supercritical,O2,C7782447,oxygen,154.58,50.43,13.6,0.07352941176470588,2.0,8.897878247075154,0.0008618183999999999
309.16,450.08,15812.0,6.3242e-05,4.1834,7.0298,149.59,22.995,41.76,494.02,0.024458,39.226,0.05549,supercritical,O2,C7782447,oxygen,154.58,50.43,13.6,0.07352941176470588,2.0,8.924846321633948,0.0008600912
309.16,451.45,15844.0,6.3115e-05,4.1791,7.0284,149.56,22.998,41.76,494.72,0.024133,39.289,0.05558,supercritical,O2,C7782447,oxygen,154.58,50.43,13.6,0.07352941176470588,2.0,8.952012690858616,0.0008583639999999999
309.16,452.81,15876.0,6.2989e-05,4.1748,7.027,149.52,23.001,41.76,495.43,0.023809,39.352,0.055669,supercritical,O2,C7782447,oxygen,154.58,50.43,13.6,0.07352941176470588,2.0,8.978980765417411,0.0008566504000000001
309.16,454.18,15907.0,6.2865e-05,4.1705,7.0257,149.49,23.004,41.759,496.14,0.023487,39.415,0.055759,supercritical,O2,C7782447,oxygen,154.58,50.43,13.6,0.07352941176470588,2.0,9.00614713464208,0.000854964
309.16,455.55,15939.0,6.2741e-05,4.1662,7.0244,149.46,23.006,41.759,496.84,0.023167,39.478,0.055848,supercritical,O2,C7782447,oxygen,154.58,50.43,13.6,0.07352941176470588,2.0,9.033313503866747,0.0008532776
309.16,456.91,15970.0,6.2618e-05,4.162,7.023,149.43,23.009,41.758,497.55,0.022849,39.541,0.055937,supercritical,O2,C7782447,oxygen,154.58,50.43,13.6,0.07352941176470588,2.0,9.06028157842554,0.0008516048
309.16,458.27,16001.0,6.2496e-05,4.1577,7.0218,149.4,23.012,41.757,498.25,0.022533,39.604,0.056026,supercritical,O2,C7782447,oxygen,154.58,50.43,13.6,0.07352941176470588,2.0,9.087249652984335,0.0008499456
309.16,459.64,16032.0,6.2374e-05,4.1535,7.0205,149.36,23.015,41.757,498.96,0.022218,39.667,0.056115,supercritical,O2,C7782447,oxygen,154.58,50.43,13.6,0.07352941176470588,2.0,9.114416022209003,0.0008482863999999999
309.16,461.0,16063.0,6.2254e-05,4.1493,7.0192,149.33,23.018,41.756,499.66,0.021905,39.729,0.056204,supercritical,O2,C7782447,oxygen,154.58,50.43,13.6,0.07352941176470588,2.0,9.141384096767798,0.0008466544
309.16,462.37,16094.0,6.2134e-05,4.1451,7.018,149.3,23.021,41.755,500.37,0.021594,39.792,0.056292,supercritical,O2,C7782447,oxygen,154.58,50.43,13.6,0.07352941176470588,2.0,9.168550465992466,0.0008450224
309.16,463.74,16125.0,6.2015e-05,4.1409,7.0168,149.27,23.023,41.754,501.07,0.021285,39.855,0.056381,supercritical,O2,C7782447,oxygen,154.58,50.43,13.6,0.07352941176470588,2.0,9.195716835217134,0.0008434039999999999
309.16,465.1,16156.0,6.1897e-05,4.1367,7.0156,149.24,23.026,41.753,501.78,0.020977,39.917,0.05647,supercritical,O2,C7782447,oxygen,154.58,50.43,13.6,0.07352941176470588,2.0,9.222684909775927,0.0008417991999999999
309.16,466.46,16187.0,6.178e-05,4.1326,7.0144,149.21,23.029,41.752,502.48,0.020671,39.98,0.056558,supercritical,O2,C7782447,oxygen,154.58,50.43,13.6,0.07352941176470588,2.0,9.249652984334721,0.000840208
309.16,467.83,16217.0,6.1663e-05,4.1284,7.0132,149.18,23.032,41.751,503.18,0.020367,40.042,0.056647,supercritical,O2,C7782447,oxygen,154.58,50.43,13.6,0.07352941176470588,2.0,9.27681935355939,0.0008386167999999999
309.16,469.19,16248.0,6.1547e-05,4.1243,7.012,149.14,23.035,41.749,503.89,0.020065,40.105,0.056735,supercritical,O2,C7782447,oxygen,154.58,50.43,13.6,0.07352941176470588,2.0,9.303787428118184,0.0008370392
309.16,470.56,16278.0,6.1432e-05,4.1201,7.0109,149.11,23.037,41.748,504.59,0.019764,40.167,0.056823,supercritical,O2,C7782447,oxygen,154.58,50.43,13.6,0.07352941176470588,2.0,9.330953797342852,0.0008354752
309.16,471.93,16308.0,6.1318e-05,4.116,7.0098,149.08,23.04,41.747,505.29,0.019465,40.229,0.056911,supercritical,O2,C7782447,oxygen,154.58,50.43,13.6,0.07352941176470588,2.0,9.35812016656752,0.0008339247999999999
309.16,473.29,16339.0,6.1205e-05,4.1119,7.0087,149.05,23.043,41.745,506.0,0.019167,40.292,0.056999,supercritical,O2,C7782447,oxygen,154.58,50.43,13.6,0.07352941176470588,2.0,9.385088241126315,0.0008323879999999999
309.16,474.65,16369.0,6.1092e-05,4.1078,7.0076,149.02,23.046,41.744,506.7,0.018871,40.354,0.057087,supercritical,O2,C7782447,oxygen,154.58,50.43,13.6,0.07352941176470588,2.0,9.412056315685108,0.0008308512
309.16,476.02,16399.0,6.098e-05,4.1038,7.0065,148.99,23.049,41.742,507.4,0.018577,40.416,0.057175,supercritical,O2,C7782447,oxygen,154.58,50.43,13.6,0.07352941176470588,2.0,9.439222684909776,0.000829328
309.16,477.38,16429.0,6.0869e-05,4.0997,7.0055,148.96,23.051,41.741,508.1,0.018285,40.478,0.057263,supercritical,O2,C7782447,oxygen,154.58,50.43,13.6,0.07352941176470588,2.0,9.46619075946857,0.0008278184
309.16,478.75,16459.0,6.0758e-05,4.0957,7.0045,148.93,23.054,41.739,508.8,0.017994,40.54,0.057351,supercritical,O2,C7782447,oxygen,154.58,50.43,13.6,0.07352941176470588,2.0,9.493357128693239,0.0008263087999999999
309.16,480.12,16488.0,6.0649e-05,4.0916,7.0034,148.9,23.057,41.737,509.51,0.017704,40.602,0.057438,supercritical,O2,C7782447,oxygen,154.58,50.43,13.6,0.07352941176470588,2.0,9.520523497917907,0.0008248264
309.16,481.48,16518.0,6.054e-05,4.0876,7.0024,148.87,23.06,41.735,510.21,0.017417,40.664,0.057526,supercritical,O2,C7782447,oxygen,154.58,50.43,13.6,0.07352941176470588,2.0,9.547491572476702,0.0008233439999999999
309.16,482.85,16548.0,6.0431e-05,4.0836,7.0015,148.84,23.062,41.733,510.91,0.017131,40.726,0.057613,supercritical,O2,C7782447,oxygen,154.58,50.43,13.6,0.07352941176470588,2.0,9.57465794170137,0.0008218615999999999
309.16,484.21,16577.0,6.0324e-05,4.0796,7.0005,148.81,23.065,41.731,511.61,0.016846,40.788,0.057701,supercritical,O2,C7782447,oxygen,154.58,50.43,13.6,0.07352941176470588,2.0,9.601626016260163,0.0008204064
309.16,485.57,16607.0,6.0217e-05,4.0756,6.9995,148.78,23.068,41.729,512.31,0.016563,40.85,0.057788,supercritical,O2,C7782447,oxygen,154.58,50.43,13.6,0.07352941176470588,2.0,9.628594090818957,0.0008189512
309.16,486.94,16636.0,6.011e-05,4.0716,6.9986,148.75,23.07,41.727,513.01,0.016282,40.912,0.057875,supercritical,O2,C7782447,oxygen,154.58,50.43,13.6,0.07352941176470588,2.0,9.655760460043625,0.0008174959999999999
309.16,488.31,16665.0,6.0005e-05,4.0676,6.9977,148.72,23.073,41.725,513.71,0.016002,40.973,0.057962,supercritical,O2,C7782447,oxygen,154.58,50.43,13.6,0.07352941176470588,2.0,9.682926829268293,0.000816068
309.16,489.67,16695.0,5.99e-05,4.0637,6.9968,148.69,23.076,41.723,514.41,0.015723,41.035,0.058049,supercritical,O2,C7782447,oxygen,154.58,50.43,13.6,0.07352941176470588,2.0,9.709894903827088,0.0008146399999999999
309.16,491.04,16724.0,5.9796e-05,4.0597,6.9959,148.66,23.079,41.721,515.11,0.015447,41.097,0.058136,supercritical,O2,C7782447,oxygen,154.58,50.43,13.6,0.07352941176470588,2.0,9.737061273051756,0.0008132256
309.16,492.4,16753.0,5.9692e-05,4.0558,6.995,148.63,23.081,41.719,515.8,0.015171,41.158,0.058223,supercritical,O2,C7782447,oxygen,154.58,50.43,13.6,0.07352941176470588,2.0,9.764029347610549,0.0008118111999999999
309.16,493.76,16782.0,5.9589e-05,4.0519,6.9942,148.61,23.084,41.716,516.5,0.014898,41.22,0.05831,supercritical,O2,C7782447,oxygen,154.58,50.43,13.6,0.07352941176470588,2.0,9.790997422169344,0.0008104104
309.16,495.13,16810.0,5.9487e-05,4.048,6.9933,148.58,23.087,41.714,517.2,0.014625,41.281,0.058396,supercritical,O2,C7782447,oxygen,154.58,50.43,13.6,0.07352941176470588,2.0,9.818163791394012,0.0008090232
309.16,496.5,16839.0,5.9385e-05,4.0441,6.9925,148.55,23.089,41.712,517.9,0.014355,41.342,0.058483,supercritical,O2,C7782447,oxygen,154.58,50.43,13.6,0.07352941176470588,2.0,9.84533016061868,0.000807636
309.16,497.86,16868.0,5.9284e-05,4.0402,6.9917,148.52,23.092,41.709,518.6,0.014085,41.404,0.05857,supercritical,O2,C7782447,oxygen,154.58,50.43,13.6,0.07352941176470588,2.0,9.872298235177475,0.0008062623999999999
309.16,499.23,16897.0,5.9184e-05,4.0363,6.9909,148.49,23.095,41.707,519.29,0.013817,41.465,0.058656,supercritical,O2,C7782447,oxygen,154.58,50.43,13.6,0.07352941176470588,2.0,9.899464604402143,0.0008049024
309.16,500.59,16925.0,5.9084e-05,4.0324,6.9901,148.46,23.097,41.704,519.99,0.013551,41.526,0.058743,supercritical,O2,C7782447,oxygen,154.58,50.43,13.6,0.07352941176470588,2.0,9.926432678960936,0.0008035424
309.16,501.95,16954.0,5.8985e-05,4.0286,6.9894,148.43,23.1,41.701,520.69,0.013286,41.588,0.058829,supercritical,O2,C7782447,oxygen,154.58,50.43,13.6,0.07352941176470588,2.0,9.95340075351973,0.0008021959999999999
309.16,503.32,16982.0,5.8886e-05,4.0247,6.9886,148.4,23.103,41.699,521.38,0.013023,41.649,0.058915,supercritical,O2,C7782447,oxygen,154.58,50.43,13.6,0.07352941176470588,2.0,9.980567122744398,0.0008008496
309.16,504.69,17010.0,5.8788e-05,4.0209,6.9879,148.38,23.105,41.696,522.08,0.012761,41.71,0.059001,supercritical,O2,C7782447,oxygen,154.58,50.43,13.6,0.07352941176470588,2.0,10.007733491969066,0.0007995168
309.16,506.05,17038.0,5.8691e-05,4.0171,6.9872,148.35,23.108,41.693,522.77,0.0125,41.771,0.059087,supercritical,O2,C7782447,oxygen,154.58,50.43,13.6,0.07352941176470588,2.0,10.034701566527861,0.0007981975999999999
309.16,507.42,17066.0,5.8594e-05,4.0133,6.9864,148.32,23.111,41.69,523.47,0.012241,41.832,0.059173,supercritical,O2,C7782447,oxygen,154.58,50.43,13.6,0.07352941176470588,2.0,10.06186793575253,0.0007968784
309.16,508.78,17095.0,5.8498e-05,4.0095,6.9858,148.29,23.113,41.688,524.16,0.011983,41.893,0.059259,supercritical,O2,C7782447,oxygen,154.58,50.43,13.6,0.07352941176470588,2.0,10.088836010311322,0.0007955728
309.16,510.14,17122.0,5.8403e-05,4.0057,6.9851,148.26,23.116,41.685,524.86,0.011727,41.954,0.059345,supercritical,O2,C7782447,oxygen,154.58,50.43,13.6,0.07352941176470588,2.0,10.115804084870117,0.0007942808
309.16,511.51,17150.0,5.8308e-05,4.0019,6.9844,148.24,23.118,41.682,525.55,0.011472,42.015,0.059431,supercritical,O2,C7782447,oxygen,154.58,50.43,13.6,0.07352941176470588,2.0,10.142970454094785,0.0007929888
309.16,512.88,17178.0,5.8213e-05,3.9982,6.9838,148.21,23.121,41.679,526.25,0.011218,42.076,0.059517,supercritical,O2,C7782447,oxygen,154.58,50.43,13.6,0.07352941176470588,2.0,10.170136823319453,0.0007916968
309.16,514.24,17206.0,5.812e-05,3.9944,6.9831,148.18,23.124,41.676,526.94,0.010966,42.137,0.059602,supercritical,O2,C7782447,oxygen,154.58,50.43,13.6,0.07352941176470588,2.0,10.197104897878248,0.000790432
309.16,515.61,17234.0,5.8026e-05,3.9907,6.9825,148.15,23.126,41.673,527.63,0.010715,42.197,0.059688,supercritical,O2,C7782447,oxygen,154.58,50.43,13.6,0.07352941176470588,2.0,10.224271267102916,0.0007891536
309.16,516.97,17261.0,5.7934e-05,3.9869,6.9819,148.13,23.129,41.67,528.32,0.010465,42.258,0.059773,supercritical,O2,C7782447,oxygen,154.58,50.43,13.6,0.07352941176470588,2.0,10.25123934166171,0.0007879024
309.16,518.34,17289.0,5.7841e-05,3.9832,6.9813,148.1,23.132,41.667,529.02,0.010217,42.319,0.059859,supercritical,O2,C7782447,oxygen,154.58,50.43,13.6,0.07352941176470588,2.0,10.278405710886378,0.0007866376
309.16,519.7,17316.0,5.775e-05,3.9795,6.9808,148.07,23.134,41.663,529.71,0.0099704,42.379,0.059944,supercritical,O2,C7782447,oxygen,154.58,50.43,13.6,0.07352941176470588,2.0,10.305373785445173,0.0007854