Temperature (K),Pressure (bar),Density (mol/m3),Volume (m3/mol),Internal Energy (kJ/mol),Enthalpy (kJ/mol),Entropy (J/mol*K),Cv (J/mol*K),Cp (J/mol*K),Sound Spd. (m/s),Joule-Thomson (K/bar),Viscosity (uPa*s),Therm. Cond. (W/m*K),Phase,substance,substance_id,substance_name,Tc,Pc,rhoc,Vmc,Tr,Pr,Vmr
139.12,260.35,30637.0,3.264e-05,-2.1073,-1.2575,113.93,26.911,53.169,720.31,-0.020913,99.895,0.11234,liquid,O2,C7782447,oxygen,154.58,50.43,13.6,0.07352941176470588,0.9,5.162601626016261,0.00044390399999999996
139.12,261.71,30653.0,3.2623e-05,-2.1097,-1.256,113.91,26.917,53.13,721.27,-0.021025,100.07,0.11248,liquid,O2,C7782447,oxygen,154.58,50.43,13.6,0.07352941176470588,0.9,5.1895697005750545,0.00044367280000000005
139.12,263.08,30669.0,3.2606e-05,-2.1122,-1.2544,113.89,26.924,53.091,722.21,-0.021137,100.24,0.11262,liquid,O2,C7782447,oxygen,154.58,50.43,13.6,0.07352941176470588,0.9,5.2167360697997225,0.00044344159999999997
139.12,264.44,30685.0,3.2589e-05,-2.1147,-1.2529,113.87,26.93,53.052,723.16,-0.021248,100.41,0.11276,liquid,O2,C7782447,oxygen,154.58,50.43,13.6,0.07352941176470588,0.9,5.243704144358516,0.0004432104
139.12,265.81,30701.0,3.2572e-05,-2.1171,-1.2513,113.85,26.936,53.014,724.1,-0.021358,100.58,0.1129,liquid,O2,C7782447,oxygen,154.58,50.43,13.6,0.07352941176470588,0.9,5.270870513583184,0.0004429792
139.12,267.18,30717.0,3.2555e-05,-2.1196,-1.2498,113.82,26.942,52.976,725.04,-0.021467,100.75,0.11304,liquid,O2,C7782447,oxygen,154.58,50.43,13.6,0.07352941176470588,0.9,5.298036882807852,0.000442748
139.12,268.54,30733.0,3.2538e-05,-2.122,-1.2482,113.8,26.948,52.938,725.98,-0.021576,100.92,0.11318,liquid,O2,C7782447,oxygen,154.58,50.43,13.6,0.07352941176470588,0.9,5.325004957366647,0.00044251679999999995
139.12,269.9,30749.0,3.2521e-05,-2.1244,-1.2467,113.78,26.955,52.901,726.91,-0.021683,101.09,0.11332,liquid,O2,C7782447,oxygen,154.58,50.43,13.6,0.07352941176470588,0.9,5.351973031925441,0.00044228560000000004
139.12,271.27,30765.0,3.2504e-05,-2.1269,-1.2451,113.76,26.961,52.863,727.84,-0.02179,101.26,0.11346,liquid,O2,C7782447,oxygen,154.58,50.43,13.6,0.07352941176470588,0.9,5.379139401150109,0.00044205439999999997
139.12,272.63,30781.0,3.2488e-05,-2.1293,-1.2435,113.74,26.967,52.826,728.77,-0.021896,101.43,0.11359,liquid,O2,C7782447,oxygen,154.58,50.43,13.6,0.07352941176470588,0.9,5.406107475708903,0.0004418368
139.12,274.0,30797.0,3.2471e-05,-2.1317,-1.242,113.72,26.973,52.79,729.69,-0.022001,101.6,0.11373,liquid,O2,C7782447,oxygen,154.58,50.43,13.6,0.07352941176470588,0.9,5.433273844933571,0.0004416056
139.12,275.37,30812.0,3.2455e-05,-2.1341,-1.2404,113.7,26.98,52.754,730.62,-0.022106,101.77,0.11387,liquid,O2,C7782447,oxygen,154.58,50.43,13.6,0.07352941176470588,0.9,5.460440214158239,0.00044138799999999997
139.12,276.73,30828.0,3.2438e-05,-2.1364,-1.2388,113.68,26.986,52.717,731.53,-0.02221,101.94,0.11401,liquid,O2,C7782447,oxygen,154.58,50.43,13.6,0.07352941176470588,0.9,5.487408288717034,0.00044115679999999995
139.12,278.1,30843.0,3.2422e-05,-2.1388,-1.2372,113.66,26.992,52.682,732.45,-0.022312,102.11,0.11414,liquid,O2,C7782447,oxygen,154.58,50.43,13.6,0.07352941176470588,0.9,5.514574657941702,0.0004409392
139.12,279.46,30859.0,3.2406e-05,-2.1412,-1.2356,113.64,26.998,52.646,733.36,-0.022415,102.27,0.11428,liquid,O2,C7782447,oxygen,154.58,50.43,13.6,0.07352941176470588,0.9,5.541542732500496,0.0004407216
139.12,280.82,30874.0,3.2389e-05,-2.1435,-1.2339,113.62,27.004,52.611,734.27,-0.022516,102.44,0.11442,liquid,O2,C7782447,oxygen,154.58,50.43,13.6,0.07352941176470588,0.9,5.56851080705929,0.00044049039999999995
139.12,282.19,30890.0,3.2373e-05,-2.1459,-1.2323,113.6,27.011,52.576,735.18,-0.022617,102.61,0.11455,liquid,O2,C7782447,oxygen,154.58,50.43,13.6,0.07352941176470588,0.9,5.595677176283958,0.0004402728
139.12,283.56,30905.0,3.2357e-05,-2.1482,-1.2307,113.58,27.017,52.541,736.08,-0.022717,102.78,0.11469,liquid,O2,C7782447,oxygen,154.58,50.43,13.6,0.07352941176470588,0.9,5.622843545508626,0.00044005520000000003
139.12,284.92,30920.0,3.2341e-05,-2.1505,-1.2291,113.56,27.023,52.507,736.99,-0.022816,102.95,0.11483,liquid,O2,C7782447,oxygen,154.58,50.43,13.6,0.07352941176470588,0.9,5.64981162006742,0.0004398376
139.12,286.29,30936.0,3.2325e-05,-2.1529,-1.2274,113.54,27.029,52.473,737.88,-0.022915,103.11,0.11496,liquid,O2,C7782447,oxygen,154.58,50.43,13.6,0.07352941176470588,0.9,5.676977989292088,0.00043962
139.12,287.65,30951.0,3.2309e-05,-2.1552,-1.2258,113.52,27.035,52.439,738.78,-0.023012,103.28,0.1151,liquid,O2,C7782447,oxygen,154.58,50.43,13.6,0.07352941176470588,0.9,5.703946063850882,0.00043940239999999995
139.12,289.01,30966.0,3.2294e-05,-2.1575,-1.2241,113.5,27.041,52.405,739.67,-0.02311,103.45,0.11523,liquid,O2,C7782447,oxygen,154.58,50.43,13.6,0.07352941176470588,0.9,5.730914138409677,0.0004391984
139.12,290.38,30981.0,3.2278e-05,-2.1598,-1.2225,113.48,27.048,52.372,740.57,-0.023206,103.61,0.11537,liquid,O2,C7782447,oxygen,154.58,50.43,13.6,0.07352941176470588,0.9,5.758080507634345,0.00043898079999999995
139.12,291.75,30996.0,3.2262e-05,-2.1621,-1.2208,113.46,27.054,52.338,741.45,-0.023302,103.78,0.1155,liquid,O2,C7782447,oxygen,154.58,50.43,13.6,0.07352941176470588,0.9,5.785246876859013,0.00043876319999999996
139.12,293.11,31011.0,3.2247e-05,-2.1643,-1.2192,113.44,27.06,52.306,742.34,-0.023397,103.95,0.11564,liquid,O2,C7782447,oxygen,154.58,50.43,13.6,0.07352941176470588,0.9,5.812214951417807,0.00043855919999999995
139.12,294.48,31026.0,3.2231e-05,-2.1666,-1.2175,113.42,27.066,52.273,743.22,-0.023491,104.11,0.11577,liquid,O2,C7782447,oxygen,154.58,50.43,13.6,0.07352941176470588,0.9,5.839381320642475,0.00043834159999999996
139.12,295.84,31041.0,3.2216e-05,-2.1689,-1.2158,113.4,27.072,52.24,744.1,-0.023585,104.28,0.1159,liquid,O2,C7782447,oxygen,154.58,50.43,13.6,0.07352941176470588,0.9,5.866349395201269,0.00043813759999999994
139.12,297.2,31056.0,3.22e-05,-2.1711,-1.2141,113.38,27.078,52.208,744.98,-0.023678,104.45,0.11604,liquid,O2,C7782447,oxygen,154.58,50.43,13.6,0.07352941176470588,0.9,5.893317469760063,0.00043791999999999995
139.12,298.57,31070.0,3.2185e-05,-2.1734,-1.2124,113.36,27.084,52.176,745.86,-0.023771,104.61,0.11617,liquid,O2,C7782447,oxygen,154.58,50.43,13.6,0.07352941176470588,0.9,5.920483838984731,0.00043771599999999994
139.12,299.94,31085.0,3.217e-05,-2.1756,-1.2107,113.34,27.09,52.144,746.73,-0.023863,104.78,0.1163,liquid,O2,C7782447,oxygen,154.58,50.43,13.6,0.07352941176470588,0.9,5.947650208209399,0.000437512
139.12,301.3,31100.0,3.2154e-05,-2.1778,-1.209,113.32,27.096,52.113,747.6,-0.023954,104.94,0.11644,liquid,O2,C7782447,oxygen,154.58,50.43,13.6,0.07352941176470588,0.9,5.974618282768194,0.00043729439999999994
139.12,302.67,31115.0,3.2139e-05,-2.1801,-1.2073,113.3,27.102,52.082,748.47,-0.024045,105.11,0.11657,liquid,O2,C7782447,oxygen,154.58,50.43,13.6,0.07352941176470588,0.9,6.001784651992862,0.0004370904
139.12,304.03,31129.0,3.2124e-05,-2.1823,-1.2056,113.29,27.109,52.05,749.33,-0.024135,105.27,0.1167,liquid,O2,C7782447,oxygen,154.58,50.43,13.6,0.07352941176470588,0.9,6.028752726551655,0.00043688639999999996
139.12,305.39,31144.0,3.2109e-05,-2.1845,-1.2039,113.27,27.115,52.02,750.2,-0.024224,105.44,0.11683,liquid,O2,C7782447,oxygen,154.58,50.43,13.6,0.07352941176470588,0.9,6.05572080111045,0.0004366824
139.12,306.76,31158.0,3.2094e-05,-2.1867,-1.2022,113.25,27.121,51.989,751.06,-0.024313,105.6,0.11696,liquid,O2,C7782447,oxygen,154.58,50.43,13.6,0.07352941176470588,0.9,6.082887170335118,0.0004364784
139.12,308.12,31173.0,3.2079e-05,-2.1889,-1.2004,113.23,27.127,51.959,751.91,-0.024401,105.77,0.1171,liquid,O2,C7782447,oxygen,154.58,50.43,13.6,0.07352941176470588,0.9,6.109855244893913,0.00043627440000000003
139.12,309.49,31187.0,3.2065e-05,-2.1911,-1.1987,113.21,27.133,51.928,752.77,-0.024489,105.93,0.11723,liquid,O2,C7782447,oxygen,154.58,50.43,13.6,0.07352941176470588,0.9,6.137021614118581,0.000436084
139.12,310.86,31202.0,3.205e-05,-2.1933,-1.197,113.19,27.139,51.898,753.62,-0.024576,106.09,0.11736,liquid,O2,C7782447,oxygen,154.58,50.43,13.6,0.07352941176470588,0.9,6.164187983343249,0.00043588
139.12,312.22,31216.0,3.2035e-05,-2.1954,-1.1952,113.17,27.145,51.868,754.47,-0.024662,106.26,0.11749,liquid,O2,C7782447,oxygen,154.58,50.43,13.6,0.07352941176470588,0.9,6.191156057902043,0.000435676
139.12,313.58,31230.0,3.202e-05,-2.1976,-1.1935,113.15,27.151,51.839,755.32,-0.024748,106.42,0.11762,liquid,O2,C7782447,oxygen,154.58,50.43,13.6,0.07352941176470588,0.9,6.2181241324608365,0.000435472
139.12,314.95,31244.0,3.2006e-05,-2.1997,-1.1917,113.13,27.157,51.809,756.17,-0.024833,106.58,0.11775,liquid,O2,C7782447,oxygen,154.58,50.43,13.6,0.07352941176470588,0.9,6.2452905016855045,0.00043528159999999997
139.12,316.31,31259.0,3.1991e-05,-2.2019,-1.19,113.11,27.163,51.78,757.01,-0.024918,106.75,0.11788,liquid,O2,C7782447,oxygen,154.58,50.43,13.6,0.07352941176470588,0.9,6.272258576244299,0.00043507759999999996
139.12,317.68,31273.0,3.1977e-05,-2.204,-1.1882,113.1,27.169,51.751,757.86,-0.025002,106.91,0.11801,liquid,O2,C7782447,oxygen,154.58,50.43,13.6,0.07352941176470588,0.9,6.299424945468967,0.0004348872
139.12,319.05,31287.0,3.1962e-05,-2.2062,-1.1864,113.08,27.175,51.722,758.7,-0.025086,107.07,0.11814,liquid,O2,C7782447,oxygen,154.58,50.43,13.6,0.07352941176470588,0.9,6.326591314693635,0.0004346832
139.12,320.41,31301.0,3.1948e-05,-2.2083,-1.1847,113.06,27.181,51.694,759.53,-0.025169,107.24,0.11827,liquid,O2,C7782447,oxygen,154.58,50.43,13.6,0.07352941176470588,0.9,6.35355938925243,0.0004344928
139.12,321.77,31315.0,3.1934e-05,-2.2104,-1.1829,113.04,27.187,51.665,760.37,-0.025252,107.4,0.1184,liquid,O2,C7782447,oxygen,154.58,50.43,13.6,0.07352941176470588,0.9,6.380527463811223,0.00043430240000000005
139.12,323.14,31329.0,3.1919e-05,-2.2125,-1.1811,113.02,27.193,51.637,761.2,-0.025334,107.56,0.11853,liquid,O2,C7782447,oxygen,154.58,50.43,13.6,0.07352941176470588,0.9,6.407693833035891,0.0004340983999999999
139.12,324.5,31343.0,3.1905e-05,-2.2146,-1.1793,113.0,27.199,51.609,762.03,-0.025415,107.72,0.11865,liquid,O2,C7782447,oxygen,154.58,50.43,13.6,0.07352941176470588,0.9,6.434661907594686,0.000433908
139.12,325.87,31357.0,3.1891e-05,-2.2167,-1.1775,112.99,27.205,51.581,762.86,-0.025496,107.89,0.11878,liquid,O2,C7782447,oxygen,154.58,50.43,13.6,0.07352941176470588,0.9,6.461828276819354,0.00043371759999999996
139.12,327.24,31371.0,3.1877e-05,-2.2188,-1.1757,112.97,27.211,51.554,763.69,-0.025576,108.05,0.11891,liquid,O2,C7782447,oxygen,154.58,50.43,13.6,0.07352941176470588,0.9,6.488994646044022,0.00043352719999999997
139.12,328.6,31385.0,3.1863e-05,-2.2209,-1.1739,112.95,27.217,51.526,764.51,-0.025656,108.21,0.11904,liquid,O2,C7782447,oxygen,154.58,50.43,13.6,0.07352941176470588,0.9,6.515962720602817,0.00043333680000000004
139.12,329.96,31398.0,3.1849e-05,-2.223,-1.1721,112.93,27.223,51.499,765.33,-0.025736,108.37,0.11917,liquid,O2,C7782447,oxygen,154.58,50.43,13.6,0.07352941176470588,0.9,6.54293079516161,0.0004331464
139.12,331.33,31412.0,3.1835e-05,-2.2251,-1.1703,112.91,27.228,51.472,766.15,-0.025815,108.53,0.11929,liquid,O2,C7782447,oxygen,154.58,50.43,13.6,0.07352941176470588,0.9,6.5700971643862776,0.000432956
139.12,332.69,31426.0,3.1821e-05,-2.2271,-1.1685,112.89,27.234,51.445,766.97,-0.025893,108.69,0.11942,liquid,O2,C7782447,oxygen,154.58,50.43,13.6,0.07352941176470588,0.9,6.597065238945072,0.0004327656
139.12,334.06,31440.0,3.1807e-05,-2.2292,-1.1667,112.88,27.24,51.418,767.79,-0.025971,108.85,0.11955,liquid,O2,C7782447,oxygen,154.58,50.43,13.6,0.07352941176470588,0.9,6.62423160816974,0.0004325752
139.12,335.43,31453.0,3.1793e-05,-2.2313,-1.1648,112.86,27.246,51.391,768.6,-0.026048,109.01,0.11968,liquid,O2,C7782447,oxygen,154.58,50.43,13.6,0.07352941176470588,0.9,6.651397977394408,0.00043238479999999996
139.12,336.79,31467.0,3.1779e-05,-2.2333,-1.163,112.84,27.252,51.365,769.41,-0.026125,109.18,0.1198,liquid,O2,C7782447,oxygen,154.58,50.43,13.6,0.07352941176470588,0.9,6.678366051953203,0.00043219440000000003
139.12,338.15,31480.0,3.1766e-05,-2.2353,-1.1612,112.82,27.258,51.339,770.22,-0.026202,109.34,0.11993,liquid,O2,C7782447,oxygen,154.58,50.43,13.6,0.07352941176470588,0.9,6.705334126511996,0.00043201759999999997
139.12,339.52,31494.0,3.1752e-05,-2.2374,-1.1593,112.8,27.264,51.313,771.03,-0.026278,109.5,0.12005,liquid,O2,C7782447,oxygen,154.58,50.43,13.6,0.07352941176470588,0.9,6.732500495736664,0.00043182719999999993
139.12,340.88,31507.0,3.1739e-05,-2.2394,-1.1575,112.79,27.27,51.287,771.84,-0.026353,109.66,0.12018,liquid,O2,C7782447,oxygen,154.58,50.43,13.6,0.07352941176470588,0.9,6.759468570295459,0.00043165040000000003
139.12,342.25,31521.0,3.1725e-05,-2.2414,-1.1556,112.77,27.276,51.261,772.64,-0.026428,109.82,0.12031,liquid,O2,C7782447,oxygen,154.58,50.43,13.6,0.07352941176470588,0.9,6.786634939520127,0.00043146
139.12,343.62,31534.0,3.1712e-05,-2.2434,-1.1538,112.75,27.281,51.235,773.44,-0.026503,109.98,0.12043,liquid,O2,C7782447,oxygen,154.58,50.43,13.6,0.07352941176470588,0.9,6.813801308744795,0.00043128319999999993
139.12,344.98,31548.0,3.1698e-05,-2.2455,-1.1519,112.73,27.287,51.21,774.24,-0.026577,110.14,0.12056,liquid,O2,C7782447,oxygen,154.58,50.43,13.6,0.07352941176470588,0.9,6.84076938330359,0.0004310928
139.12,346.35,31561.0,3.1685e-05,-2.2475,-1.1501,112.71,27.293,51.185,775.04,-0.026651,110.3,0.12068,liquid,O2,C7782447,oxygen,154.58,50.43,13.6,0.07352941176470588,0.9,6.867935752528258,0.000430916
139.12,347.71,31574.0,3.1671e-05,-2.2495,-1.1482,112.7,27.299,51.16,775.84,-0.026724,110.46,0.12081,liquid,O2,C7782447,oxygen,154.58,50.43,13.6,0.07352941176470588,0.9,6.894903827087051,0.0004307256
139.12,349.07,31588.0,3.1658e-05,-2.2514,-1.1463,112.68,27.305,51.135,776.63,-0.026797,110.62,0.12093,liquid,O2,C7782447,oxygen,154.58,50.43,13.6,0.07352941176470588,0.9,6.921871901645845,0.0004305488
139.12,350.44,31601.0,3.1645e-05,-2.2534,-1.1445,112.66,27.31,51.11,777.42,-0.026869,110.78,0.12106,liquid,O2,C7782447,oxygen,154.58,50.43,13.6,0.07352941176470588,0.9,6.949038270870513,0.000430372
139.12,351.81,31614.0,3.1632e-05,-2.2554,-1.1426,112.64,27.316,51.085,778.21,-0.026941,110.93,0.12118,liquid,O2,C7782447,oxygen,154.58,50.43,13.6,0.07352941176470588,0.9,6.976204640095181,0.0004301952
139.12,353.17,31627.0,3.1618e-05,-2.2574,-1.1407,112.63,27.322,51.061,779.0,-0.027012,111.09,0.1213,liquid,O2,C7782447,oxygen,154.58,50.43,13.6,0.07352941176470588,0.9,7.003172714653976,0.0004300048
139.12,354.54,31640.0,3.1605e-05,-2.2594,-1.1388,112.61,27.328,51.037,779.79,-0.027083,111.25,0.12143,liquid,O2,C7782447,oxygen,154.58,50.43,13.6,0.07352941176470588,0.9,7.030339083878644,0.000429828
139.12,355.9,31653.0,3.1592e-05,-2.2613,-1.1369,112.59,27.334,51.012,780.57,-0.027154,111.41,0.12155,liquid,O2,C7782447,oxygen,154.58,50.43,13.6,0.07352941176470588,0.9,7.057307158437438,0.0004296512
139.12,357.26,31666.0,3.1579e-05,-2.2633,-1.135,112.57,27.339,50.988,781.36,-0.027224,111.57,0.12167,liquid,O2,C7782447,oxygen,154.58,50.43,13.6,0.07352941176470588,0.9,7.084275232996232,0.0004294743999999999
139.12,358.63,31679.0,3.1566e-05,-2.2652,-1.1332,112.56,27.345,50.964,782.14,-0.027294,111.73,0.1218,liquid,O2,C7782447,oxygen,154.58,50.43,13.6,0.07352941176470588,0.9,7.1114416022209,0.0004292976
139.12,360.0,31692.0,3.1553e-05,-2.2672,-1.1313,112.54,27.351,50.941,782.92,-0.027363,111.89,0.12192,liquid,O2,C7782447,oxygen,154.58,50.43,13.6,0.07352941176470588,0.9,7.138607971445568,0.0004291208
139.12,361.36,31705.0,3.154e-05,-2.2691,-1.1293,112.52,27.357,50.917,783.69,-0.027432,112.04,0.12204,liquid,O2,C7782447,oxygen,154.58,50.43,13.6,0.07352941176470588,0.9,7.165576046004363,0.000428944
139.12,362.73,31718.0,3.1528e-05,-2.271,-1.1274,112.51,27.362,50.894,784.47,-0.0275,112.2,0.12217,liquid,O2,C7782447,oxygen,154.58,50.43,13.6,0.07352941176470588,0.9,7.192742415229031,0.00042878079999999997
139.12,364.09,31731.0,3.1515e-05,-2.273,-1.1255,112.49,27.368,50.87,785.24,-0.027568,112.36,0.12229,liquid,O2,C7782447,oxygen,154.58,50.43,13.6,0.07352941176470588,0.9,7.219710489787825,0.00042860399999999996
139.12,365.45,31744.0,3.1502e-05,-2.2749,-1.1236,112.47,27.374,50.847,786.02,-0.027636,112.52,0.12241,liquid,O2,C7782447,oxygen,154.58,50.43,13.6,0.07352941176470588,0.9,7.2466785643466185,0.00042842719999999996
139.12,366.82,31757.0,3.1489e-05,-2.2768,-1.1217,112.45,27.38,50.824,786.79,-0.027703,112.68,0.12253,liquid,O2,C7782447,oxygen,154.58,50.43,13.6,0.07352941176470588,0.9,7.2738449335712865,0.0004282504
139.12,368.19,31770.0,3.1477e-05,-2.2787,-1.1198,112.44,27.385,50.801,787.55,-0.02777,112.83,0.12265,liquid,O2,C7782447,oxygen,154.58,50.43,13.6,0.07352941176470588,0.9,7.3010113027959544,0.00042808719999999997
139.12,369.55,31782.0,3.1464e-05,-2.2806,-1.1178,112.42,27.391,50.779,788.32,-0.027837,112.99,0.12278,liquid,O2,C7782447,oxygen,154.58,50.43,13.6,0.07352941176470588,0.9,7.327979377354749,0.0004279104
139.12,370.92,31795.0,3.1452e-05,-2.2825,-1.1159,112.4,27.397,50.756,789.09,-0.027903,113.15,0.1229,liquid,O2,C7782447,oxygen,154.58,50.43,13.6,0.07352941176470588,0.9,7.355145746579417,0.00042774720000000004
139.12,372.28,31808.0,3.1439e-05,-2.2844,-1.114,112.39,27.402,50.733,789.85,-0.027969,113.3,0.12302,liquid,O2,C7782447,oxygen,154.58,50.43,13.6,0.07352941176470588,0.9,7.382113821138211,0.00042757040000000003
139.12,373.64,31820.0,3.1426e-05,-2.2863,-1.112,112.37,27.408,50.711,790.61,-0.028034,113.46,0.12314,liquid,O2,C7782447,oxygen,154.58,50.43,13.6,0.07352941176470588,0.9,7.409081895697006,0.00042739359999999997
139.12,375.01,31833.0,3.1414e-05,-2.2882,-1.1101,112.35,27.414,50.689,791.37,-0.028099,113.62,0.12326,liquid,O2,C7782447,oxygen,154.58,50.43,13.6,0.07352941176470588,0.9,7.436248264921674,0.0004272304
139.12,376.38,31845.0,3.1402e-05,-2.29,-1.1081,112.34,27.419,50.667,792.13,-0.028163,113.77,0.12338,liquid,O2,C7782447,oxygen,154.58,50.43,13.6,0.07352941176470588,0.9,7.463414634146341,0.0004270672
139.12,377.74,31858.0,3.1389e-05,-2.2919,-1.1062,112.32,27.425,50.645,792.89,-0.028228,113.93,0.1235,liquid,O2,C7782447,oxygen,154.58,50.43,13.6,0.07352941176470588,0.9,7.490382708705136,0.0004268904
139.12,379.11,31871.0,3.1377e-05,-2.2938,-1.1042,112.3,27.43,50.623,793.64,-0.028292,114.09,0.12362,liquid,O2,C7782447,oxygen,154.58,50.43,13.6,0.07352941176470588,0.9,7.517549077929804,0.0004267272
139.12,380.47,31883.0,3.1365e-05,-2.2956,-1.1023,112.28,27.436,50.601,794.39,-0.028355,114.24,0.12374,liquid,O2,C7782447,oxygen,154.58,50.43,13.6,0.07352941176470588,0.9,7.5445171524885986,0.000426564
139.12,381.83,31895.0,3.1352e-05,-2.2975,-1.1003,112.27,27.442,50.58,795.15,-0.028418,114.4,0.12386,liquid,O2,C7782447,oxygen,154.58,50.43,13.6,0.07352941176470588,0.9,7.5714852270473925,0.0004263872
139.12,383.2,31908.0,3.134e-05,-2.2993,-1.0984,112.25,27.447,50.558,795.9,-0.028481,114.56,0.12398,liquid,O2,C7782447,oxygen,154.58,50.43,13.6,0.07352941176470588,0.9,7.59865159627206,0.000426224
139.12,384.56,31920.0,3.1328e-05,-2.3012,-1.0964,112.23,27.453,50.537,796.65,-0.028543,114.71,0.1241,liquid,O2,C7782447,oxygen,154.58,50.43,13.6,0.07352941176470588,0.9,7.625619670830854,0.0004260608
139.12,385.93,31933.0,3.1316e-05,-2.303,-1.0944,112.22,27.458,50.516,797.39,-0.028605,114.87,0.12422,liquid,O2,C7782447,oxygen,154.58,50.43,13.6,0.07352941176470588,0.9,7.652786040055522,0.00042589760000000005
139.12,387.3,31945.0,3.1304e-05,-2.3048,-1.0925,112.2,27.464,50.495,798.14,-0.028667,115.02,0.12434,liquid,O2,C7782447,oxygen,154.58,50.43,13.6,0.07352941176470588,0.9,7.67995240928019,0.00042573439999999996
139.12,388.66,31957.0,3.1292e-05,-2.3067,-1.0905,112.19,27.47,50.474,798.88,-0.028728,115.18,0.12446,liquid,O2,C7782447,oxygen,154.58,50.43,13.6,0.07352941176470588,0.9,7.706920483838985,0.0004255712
139.12,390.02,31970.0,3.128e-05,-2.3085,-1.0885,112.17,27.475,50.453,799.62,-0.028789,115.33,0.12458,liquid,O2,C7782447,oxygen,154.58,50.43,13.6,0.07352941176470588,0.9,7.733888558397779,0.00042540799999999995