Temperature (K),Pressure (bar),Density (mol/m3),Volume (m3/mol),Internal Energy (kJ/mol),Enthalpy (kJ/mol),Entropy (J/mol*K),Cv (J/mol*K),Cp (J/mol*K),Sound Spd. (m/s),Joule-Thomson (K/bar),Viscosity (uPa*s),Therm. Cond. (W/m*K),Phase,substance,substance_id,substance_name,Tc,Pc,rhoc,Vmc,Tr,Pr,Vmr
395.43,227.17,10293.0,9.7158e-05,18.066,20.273,75.225,39.464,88.202,329.95,0.22013,35.747,0.053243,supercritical,CO2,C124389,carbon-dioxide,304.18,73.8,10.6,0.09433962264150944,1.3,3.0781842818428182,0.0010298748
395.43,229.62,10407.0,9.6093e-05,18.019,20.225,75.046,39.479,88.281,331.94,0.21586,36.101,0.053671,supercritical,CO2,C124389,carbon-dioxide,304.18,73.8,10.6,0.09433962264150944,1.3,3.1113821138211386,0.0010185857999999999
395.43,232.08,10519.0,9.5064e-05,17.973,20.179,74.869,39.492,88.342,333.96,0.21167,36.455,0.054096,supercritical,CO2,C124389,carbon-dioxide,304.18,73.8,10.6,0.09433962264150944,1.3,3.144715447154472,0.0010076783999999998
395.43,234.54,10631.0,9.4068e-05,17.927,20.133,74.695,39.505,88.386,336.01,0.20756,36.81,0.054518,supercritical,CO2,C124389,carbon-dioxide,304.18,73.8,10.6,0.09433962264150944,1.3,3.178048780487805,0.0009971207999999998
395.43,237.0,10741.0,9.3104e-05,17.882,20.089,74.524,39.516,88.413,338.07,0.20352,37.166,0.054936,supercritical,CO2,C124389,carbon-dioxide,304.18,73.8,10.6,0.09433962264150944,1.3,3.2113821138211383,0.0009869024
395.43,239.46,10849.0,9.2172e-05,17.838,20.045,74.355,39.527,88.424,340.16,0.19956,37.521,0.055352,supercritical,CO2,C124389,carbon-dioxide,304.18,73.8,10.6,0.09433962264150944,1.3,3.244715447154472,0.0009770232
395.43,241.92,10957.0,9.1269e-05,17.794,20.002,74.19,39.537,88.42,342.28,0.19567,37.877,0.055764,supercritical,CO2,C124389,carbon-dioxide,304.18,73.8,10.6,0.09433962264150944,1.3,3.2780487804878047,0.0009674513999999998
395.43,244.37,11063.0,9.0395e-05,17.751,19.96,74.027,39.546,88.402,344.41,0.19186,38.232,0.056172,supercritical,CO2,C124389,carbon-dioxide,304.18,73.8,10.6,0.09433962264150944,1.3,3.311246612466125,0.000958187
395.43,246.83,11167.0,8.9548e-05,17.708,19.919,73.866,39.554,88.37,346.56,0.18812,38.587,0.056578,supercritical,CO2,C124389,carbon-dioxide,304.18,73.8,10.6,0.09433962264150944,1.3,3.3445799457994583,0.0009492087999999999
395.43,249.29,11270.0,8.8728e-05,17.666,19.878,73.709,39.561,88.327,348.72,0.18446,38.942,0.05698,supercritical,CO2,C124389,carbon-dioxide,304.18,73.8,10.6,0.09433962264150944,1.3,3.3779132791327915,0.0009405167999999999
395.43,251.75,11372.0,8.7933e-05,17.625,19.838,73.554,39.568,88.271,350.9,0.18088,39.296,0.057379,supercritical,CO2,C124389,carbon-dioxide,304.18,73.8,10.6,0.09433962264150944,1.3,3.4112466124661247,0.0009320897999999999
395.43,254.21,11473.0,8.7163e-05,17.584,19.8,73.401,39.574,88.204,353.1,0.17736,39.65,0.057775,supercritical,CO2,C124389,carbon-dioxide,304.18,73.8,10.6,0.09433962264150944,1.3,3.4445799457994584,0.0009239278
395.43,256.67,11572.0,8.6416e-05,17.544,19.762,73.251,39.58,88.128,355.31,0.17392,40.003,0.058167,supercritical,CO2,C124389,carbon-dioxide,304.18,73.8,10.6,0.09433962264150944,1.3,3.4779132791327916,0.0009160095999999998
395.43,259.12,11670.0,8.5691e-05,17.504,19.724,73.103,39.585,88.042,357.54,0.17055,40.355,0.058556,supercritical,CO2,C124389,carbon-dioxide,304.18,73.8,10.6,0.09433962264150944,1.3,3.5111111111111115,0.0009083246
395.43,261.58,11766.0,8.4988e-05,17.465,19.688,72.957,39.59,87.947,359.77,0.16725,40.706,0.058942,supercritical,CO2,C124389,carbon-dioxide,304.18,73.8,10.6,0.09433962264150944,1.3,3.5444444444444443,0.0009008727999999999
395.43,264.04,11862.0,8.4306e-05,17.426,19.652,72.814,39.594,87.845,362.01,0.16403,41.056,0.059324,supercritical,CO2,C124389,carbon-dioxide,304.18,73.8,10.6,0.09433962264150944,1.3,3.5777777777777784,0.0008936435999999999
395.43,266.5,11956.0,8.3644e-05,17.388,19.617,72.673,39.598,87.735,364.27,0.16087,41.405,0.059704,supercritical,CO2,C124389,carbon-dioxide,304.18,73.8,10.6,0.09433962264150944,1.3,3.611111111111111,0.0008866264
395.43,268.96,12048.0,8.3e-05,17.35,19.583,72.535,39.601,87.618,366.53,0.15778,41.753,0.06008,supercritical,CO2,C124389,carbon-dioxide,304.18,73.8,10.6,0.09433962264150944,1.3,3.6444444444444444,0.0008797999999999999
395.43,271.42,12139.0,8.2376e-05,17.313,19.549,72.398,39.604,87.496,368.8,0.15476,42.1,0.060453,supercritical,CO2,C124389,carbon-dioxide,304.18,73.8,10.6,0.09433962264150944,1.3,3.677777777777778,0.0008731855999999999
395.43,273.87,12230.0,8.1769e-05,17.277,19.516,72.264,39.607,87.367,371.08,0.1518,42.445,0.060823,supercritical,CO2,C124389,carbon-dioxide,304.18,73.8,10.6,0.09433962264150944,1.3,3.710975609756098,0.0008667513999999999
395.43,276.33,12318.0,8.1179e-05,17.24,19.484,72.132,39.609,87.234,373.36,0.14891,42.789,0.061189,supercritical,CO2,C124389,carbon-dioxide,304.18,73.8,10.6,0.09433962264150944,1.3,3.7443089430894307,0.0008604974
395.43,278.79,12406.0,8.0605e-05,17.205,19.452,72.002,39.612,87.097,375.65,0.14608,43.132,0.061553,supercritical,CO2,C124389,carbon-dioxide,304.18,73.8,10.6,0.09433962264150944,1.3,3.777642276422765,0.0008544129999999999
395.43,281.25,12493.0,8.0048e-05,17.17,19.421,71.873,39.613,86.955,377.94,0.14331,43.473,0.061914,supercritical,CO2,C124389,carbon-dioxide,304.18,73.8,10.6,0.09433962264150944,1.3,3.8109756097560976,0.0008485087999999999
395.43,283.71,12578.0,7.9505e-05,17.135,19.391,71.747,39.615,86.81,380.23,0.1406,43.813,0.062271,supercritical,CO2,C124389,carbon-dioxide,304.18,73.8,10.6,0.09433962264150944,1.3,3.844308943089431,0.000842753
395.43,286.17,12662.0,7.8977e-05,17.101,19.361,71.623,39.617,86.662,382.53,0.13796,44.151,0.062626,supercritical,CO2,C124389,carbon-dioxide,304.18,73.8,10.6,0.09433962264150944,1.3,3.8776422764227645,0.0008371561999999999
395.43,288.62,12745.0,7.8463e-05,17.067,19.332,71.5,39.618,86.512,384.83,0.13537,44.488,0.062978,supercritical,CO2,C124389,carbon-dioxide,304.18,73.8,10.6,0.09433962264150944,1.3,3.9108401084010844,0.0008317077999999999
395.43,291.08,12827.0,7.7963e-05,17.034,19.304,71.379,39.619,86.359,387.12,0.13284,44.823,0.063327,supercritical,CO2,C124389,carbon-dioxide,304.18,73.8,10.6,0.09433962264150944,1.3,3.944173441734417,0.0008264078
395.43,293.54,12907.0,7.7475e-05,17.001,19.276,71.261,39.62,86.204,389.42,0.13037,45.157,0.063673,supercritical,CO2,C124389,carbon-dioxide,304.18,73.8,10.6,0.09433962264150944,1.3,3.9775067750677513,0.0008212349999999999
395.43,296.0,12987.0,7.7001e-05,16.969,19.248,71.143,39.621,86.047,391.72,0.12795,45.489,0.064017,supercritical,CO2,C124389,carbon-dioxide,304.18,73.8,10.6,0.09433962264150944,1.3,4.0108401084010845,0.0008162105999999999
395.43,298.46,13065.0,7.6538e-05,16.937,19.221,71.028,39.622,85.889,394.02,0.12558,45.819,0.064358,supercritical,CO2,C124389,carbon-dioxide,304.18,73.8,10.6,0.09433962264150944,1.3,4.044173441734417,0.0008113028
395.43,300.92,13143.0,7.6087e-05,16.906,19.195,70.914,39.622,85.73,396.31,0.12327,46.148,0.064696,supercritical,CO2,C124389,carbon-dioxide,304.18,73.8,10.6,0.09433962264150944,1.3,4.077506775067751,0.0008065222
395.43,303.37,13219.0,7.5647e-05,16.875,19.17,70.802,39.623,85.57,398.61,0.12101,46.475,0.065031,supercritical,CO2,C124389,carbon-dioxide,304.18,73.8,10.6,0.09433962264150944,1.3,4.11070460704607,0.0008018582
395.43,305.83,13295.0,7.5218e-05,16.844,19.144,70.691,39.624,85.409,400.9,0.11879,46.801,0.065364,supercritical,CO2,C124389,carbon-dioxide,304.18,73.8,10.6,0.09433962264150944,1.3,4.144037940379404,0.0007973107999999999
395.43,308.29,13369.0,7.4799e-05,16.814,19.12,70.582,39.624,85.248,403.19,0.11663,47.124,0.065694,supercritical,CO2,C124389,carbon-dioxide,304.18,73.8,10.6,0.09433962264150944,1.3,4.177371273712738,0.0007928693999999999
395.43,310.75,13443.0,7.439e-05,16.784,19.095,70.475,39.624,85.086,405.47,0.11451,47.447,0.066022,supercritical,CO2,C124389,carbon-dioxide,304.18,73.8,10.6,0.09433962264150944,1.3,4.210704607046071,0.0007885339999999999
395.43,313.21,13515.0,7.3991e-05,16.754,19.072,70.369,39.625,84.925,407.75,0.11244,47.767,0.066347,supercritical,CO2,C124389,carbon-dioxide,304.18,73.8,10.6,0.09433962264150944,1.3,4.244037940379403,0.0007843046
395.43,315.67,13587.0,7.3602e-05,16.725,19.048,70.264,39.625,84.764,410.03,0.11042,48.086,0.066669,supercritical,CO2,C124389,carbon-dioxide,304.18,73.8,10.6,0.09433962264150944,1.3,4.277371273712737,0.0007801812
395.43,318.12,13657.0,7.3221e-05,16.696,19.026,70.161,39.626,84.603,412.3,0.10844,48.403,0.06699,supercritical,CO2,C124389,carbon-dioxide,304.18,73.8,10.6,0.09433962264150944,1.3,4.310569105691057,0.0007761425999999999
395.43,320.58,13727.0,7.2849e-05,16.668,19.003,70.059,39.626,84.442,414.57,0.1065,48.719,0.067308,supercritical,CO2,C124389,carbon-dioxide,304.18,73.8,10.6,0.09433962264150944,1.3,4.34390243902439,0.0007721994
395.43,323.04,13796.0,7.2486e-05,16.64,18.981,69.958,39.626,84.282,416.83,0.1046,49.032,0.067623,supercritical,CO2,C124389,carbon-dioxide,304.18,73.8,10.6,0.09433962264150944,1.3,4.377235772357724,0.0007683515999999999
395.43,325.5,13864.0,7.2131e-05,16.612,18.96,69.859,39.627,84.122,419.09,0.10274,49.345,0.067937,supercritical,CO2,C124389,carbon-dioxide,304.18,73.8,10.6,0.09433962264150944,1.3,4.410569105691057,0.0007645886
395.43,327.96,13931.0,7.1783e-05,16.585,18.939,69.761,39.627,83.963,421.34,0.10093,49.655,0.068248,supercritical,CO2,C124389,carbon-dioxide,304.18,73.8,10.6,0.09433962264150944,1.3,4.44390243902439,0.0007608997999999999
395.43,330.42,13997.0,7.1444e-05,16.558,18.918,69.664,39.627,83.805,423.59,0.099147,49.964,0.068557,supercritical,CO2,C124389,carbon-dioxide,304.18,73.8,10.6,0.09433962264150944,1.3,4.477235772357724,0.0007573063999999999
395.43,332.87,14062.0,7.1111e-05,16.531,18.898,69.569,39.628,83.647,425.83,0.097405,50.272,0.068863,supercritical,CO2,C124389,carbon-dioxide,304.18,73.8,10.6,0.09433962264150944,1.3,4.510433604336043,0.0007537765999999999
395.43,335.33,14127.0,7.0786e-05,16.505,18.878,69.475,39.628,83.491,428.06,0.095699,50.577,0.069168,supercritical,CO2,C124389,carbon-dioxide,304.18,73.8,10.6,0.09433962264150944,1.3,4.543766937669377,0.0007503315999999999
395.43,337.79,14191.0,7.0467e-05,16.479,18.859,69.382,39.628,83.335,430.28,0.094029,50.881,0.06947,supercritical,CO2,C124389,carbon-dioxide,304.18,73.8,10.6,0.09433962264150944,1.3,4.577100271002711,0.0007469502
395.43,340.25,14254.0,7.0156e-05,16.453,18.84,69.29,39.629,83.181,432.5,0.092393,51.184,0.069771,supercritical,CO2,C124389,carbon-dioxide,304.18,73.8,10.6,0.09433962264150944,1.3,4.610433604336044,0.0007436535999999999
395.43,342.71,14316.0,6.985e-05,16.427,18.821,69.199,39.629,83.027,434.72,0.090791,51.485,0.070069,supercritical,CO2,C124389,carbon-dioxide,304.18,73.8,10.6,0.09433962264150944,1.3,4.643766937669376,0.0007404099999999999
395.43,345.17,14378.0,6.9551e-05,16.402,18.803,69.109,39.63,82.875,436.92,0.089221,51.784,0.070365,supercritical,CO2,C124389,carbon-dioxide,304.18,73.8,10.6,0.09433962264150944,1.3,4.67710027100271,0.0007372405999999999
395.43,347.62,14439.0,6.9258e-05,16.377,18.785,69.02,39.63,82.723,439.12,0.087683,52.082,0.07066,supercritical,CO2,C124389,carbon-dioxide,304.18,73.8,10.6,0.09433962264150944,1.3,4.71029810298103,0.0007341348000000001
395.43,350.08,14499.0,6.8971e-05,16.352,18.767,68.933,39.631,82.573,441.32,0.086175,52.378,0.070952,supercritical,CO2,C124389,carbon-dioxide,304.18,73.8,10.6,0.09433962264150944,1.3,4.743631436314363,0.0007310925999999999
395.43,352.54,14558.0,6.869e-05,16.328,18.75,68.846,39.631,82.424,443.5,0.084697,52.673,0.071242,supercritical,CO2,C124389,carbon-dioxide,304.18,73.8,10.6,0.09433962264150944,1.3,4.776964769647697,0.0007281139999999999
395.43,355.0,14617.0,6.8414e-05,16.304,18.733,68.761,39.632,82.276,445.68,0.083249,52.966,0.071531,supercritical,CO2,C124389,carbon-dioxide,304.18,73.8,10.6,0.09433962264150944,1.3,4.81029810298103,0.0007251883999999999
395.43,357.46,14675.0,6.8143e-05,16.28,18.716,68.676,39.633,82.13,447.85,0.081829,53.258,0.071818,supercritical,CO2,C124389,carbon-dioxide,304.18,73.8,10.6,0.09433962264150944,1.3,4.843631436314363,0.0007223158
395.43,359.92,14732.0,6.7878e-05,16.257,18.7,68.592,39.633,81.984,450.02,0.080436,53.548,0.072103,supercritical,CO2,C124389,carbon-dioxide,304.18,73.8,10.6,0.09433962264150944,1.3,4.876964769647697,0.0007195068
395.43,362.37,14789.0,6.7617e-05,16.233,18.684,68.51,39.634,81.84,452.17,0.07907,53.837,0.072386,supercritical,CO2,C124389,carbon-dioxide,304.18,73.8,10.6,0.09433962264150944,1.3,4.910162601626016,0.0007167402
395.43,364.83,14845.0,6.7362e-05,16.21,18.668,68.428,39.635,81.697,454.32,0.07773,54.124,0.072667,supercritical,CO2,C124389,carbon-dioxide,304.18,73.8,10.6,0.09433962264150944,1.3,4.9434959349593495,0.0007140371999999999
395.43,367.29,14901.0,6.7111e-05,16.187,18.652,68.347,39.636,81.555,456.46,0.076416,54.41,0.072947,supercritical,CO2,C124389,carbon-dioxide,304.18,73.8,10.6,0.09433962264150944,1.3,4.976829268292684,0.0007113766
395.43,369.75,14956.0,6.6865e-05,16.165,18.637,68.267,39.636,81.415,458.6,0.075126,54.694,0.073225,supercritical,CO2,C124389,carbon-dioxide,304.18,73.8,10.6,0.09433962264150944,1.3,5.010162601626017,0.000708769
395.43,372.21,15010.0,6.6623e-05,16.143,18.622,68.188,39.637,81.275,460.73,0.07386,54.977,0.073501,supercritical,CO2,C124389,carbon-dioxide,304.18,73.8,10.6,0.09433962264150944,1.3,5.043495934959349,0.0007062037999999999
395.43,374.67,15063.0,6.6386e-05,16.12,18.608,68.109,39.638,81.137,462.85,0.072618,55.259,0.073775,supercritical,CO2,C124389,carbon-dioxide,304.18,73.8,10.6,0.09433962264150944,1.3,5.076829268292683,0.0007036915999999999
395.43,377.12,15117.0,6.6153e-05,16.099,18.593,68.032,39.639,81.001,464.96,0.071399,55.539,0.074048,supercritical,CO2,C124389,carbon-dioxide,304.18,73.8,10.6,0.09433962264150944,1.3,5.110027100271003,0.0007012218
395.43,379.58,15169.0,6.5924e-05,16.077,18.579,67.955,39.64,80.865,467.07,0.070202,55.817,0.074319,supercritical,CO2,C124389,carbon-dioxide,304.18,73.8,10.6,0.09433962264150944,1.3,5.143360433604336,0.0006987944
395.43,382.04,15221.0,6.5699e-05,16.055,18.565,67.879,39.641,80.731,469.16,0.069026,56.095,0.074589,supercritical,CO2,C124389,carbon-dioxide,304.18,73.8,10.6,0.09433962264150944,1.3,5.17669376693767,0.0006964093999999999
395.43,384.5,15272.0,6.5478e-05,16.034,18.552,67.804,39.643,80.598,471.25,0.067871,56.371,0.074857,supercritical,CO2,C124389,carbon-dioxide,304.18,73.8,10.6,0.09433962264150944,1.3,5.210027100271003,0.0006940668
395.43,386.96,15323.0,6.526e-05,16.013,18.539,67.73,39.644,80.466,473.34,0.066737,56.646,0.075124,supercritical,CO2,C124389,carbon-dioxide,304.18,73.8,10.6,0.09433962264150944,1.3,5.243360433604336,0.0006917559999999999
395.43,389.42,15374.0,6.5046e-05,15.992,18.525,67.656,39.645,80.335,475.41,0.065623,56.919,0.075389,supercritical,CO2,C124389,carbon-dioxide,304.18,73.8,10.6,0.09433962264150944,1.3,5.27669376693767,0.0006894875999999999
395.43,391.88,15423.0,6.4836e-05,15.972,18.513,67.583,39.646,80.206,477.48,0.064529,57.191,0.075652,supercritical,CO2,C124389,carbon-dioxide,304.18,73.8,10.6,0.09433962264150944,1.3,5.310027100271003,0.0006872616
395.43,394.33,15473.0,6.463e-05,15.951,18.5,67.511,39.648,80.077,479.55,0.063454,57.462,0.075914,supercritical,CO2,C124389,carbon-dioxide,304.18,73.8,10.6,0.09433962264150944,1.3,5.343224932249322,0.0006850779999999999
395.43,396.79,15522.0,6.4427e-05,15.931,18.488,67.44,39.649,79.95,481.6,0.062397,57.731,0.076175,supercritical,CO2,C124389,carbon-dioxide,304.18,73.8,10.6,0.09433962264150944,1.3,5.3765582655826565,0.0006829261999999999
395.43,399.25,15570.0,6.4227e-05,15.911,18.475,67.369,39.65,79.825,483.65,0.061358,57.999,0.076434,supercritical,CO2,C124389,carbon-dioxide,304.18,73.8,10.6,0.09433962264150944,1.3,5.40989159891599,0.0006808061999999999
395.43,401.71,15618.0,6.403e-05,15.891,18.464,67.299,39.652,79.7,485.69,0.060337,58.266,0.076692,supercritical,CO2,C124389,carbon-dioxide,304.18,73.8,10.6,0.09433962264150944,1.3,5.443224932249322,0.0006787179999999999
395.43,404.17,15665.0,6.3836e-05,15.872,18.452,67.23,39.653,79.576,487.72,0.059333,58.532,0.076948,supercritical,CO2,C124389,carbon-dioxide,304.18,73.8,10.6,0.09433962264150944,1.3,5.476558265582656,0.0006766615999999999
395.43,406.63,15712.0,6.3646e-05,15.852,18.44,67.161,39.655,79.454,489.75,0.058346,58.797,0.077203,supercritical,CO2,C124389,carbon-dioxide,304.18,73.8,10.6,0.09433962264150944,1.3,5.509891598915989,0.0006746475999999999
395.43,409.08,15758.0,6.3458e-05,15.833,18.429,67.093,39.656,79.333,491.76,0.057375,59.06,0.077457,supercritical,CO2,C124389,carbon-dioxide,304.18,73.8,10.6,0.09433962264150944,1.3,5.543089430894309,0.0006726548
395.43,411.54,15804.0,6.3274e-05,15.814,18.418,67.026,39.658,79.213,493.78,0.056421,59.322,0.077709,supercritical,CO2,C124389,carbon-dioxide,304.18,73.8,10.6,0.09433962264150944,1.3,5.576422764227643,0.0006707044
395.43,414.0,15850.0,6.3092e-05,15.795,18.407,66.959,39.66,79.094,495.78,0.055482,59.583,0.07796,supercritical,CO2,C124389,carbon-dioxide,304.18,73.8,10.6,0.09433962264150944,1.3,5.609756097560976,0.0006687751999999999
395.43,416.46,15895.0,6.2913e-05,15.776,18.396,66.893,39.661,78.977,497.78,0.054558,59.842,0.07821,supercritical,CO2,C124389,carbon-dioxide,304.18,73.8,10.6,0.09433962264150944,1.3,5.6430894308943085,0.0006668777999999999
395.43,418.92,15940.0,6.2736e-05,15.758,18.386,66.827,39.663,78.86,499.77,0.05365,60.101,0.078459,supercritical,CO2,C124389,carbon-dioxide,304.18,73.8,10.6,0.09433962264150944,1.3,5.676422764227643,0.0006650016
395.43,421.38,15984.0,6.2563e-05,15.739,18.376,66.762,39.665,78.745,501.75,0.052756,60.358,0.078706,supercritical,CO2,C124389,carbon-dioxide,304.18,73.8,10.6,0.09433962264150944,1.3,5.709756097560976,0.0006631678
395.43,423.83,16028.0,6.2392e-05,15.721,18.365,66.697,39.667,78.63,503.73,0.051876,60.615,0.078952,supercritical,CO2,C124389,carbon-dioxide,304.18,73.8,10.6,0.09433962264150944,1.3,5.742953929539295,0.0006613551999999999
395.43,426.29,16071.0,6.2223e-05,15.703,18.356,66.634,39.669,78.517,505.7,0.05101,60.87,0.079196,supercritical,CO2,C124389,carbon-dioxide,304.18,73.8,10.6,0.09433962264150944,1.3,5.776287262872629,0.0006595638
395.43,428.75,16114.0,6.2057e-05,15.685,18.346,66.57,39.671,78.405,507.66,0.050158,61.124,0.07944,supercritical,CO2,C124389,carbon-dioxide,304.18,73.8,10.6,0.09433962264150944,1.3,5.809620596205963,0.0006578042
395.43,431.21,16157.0,6.1893e-05,15.667,18.336,66.508,39.673,78.294,509.61,0.04932,61.377,0.079682,supercritical,CO2,C124389,carbon-dioxide,304.18,73.8,10.6,0.09433962264150944,1.3,5.842953929539295,0.0006560657999999999
395.43,433.67,16199.0,6.1732e-05,15.65,18.327,66.445,39.675,78.185,511.56,0.048494,61.628,0.079923,supercritical,CO2,C124389,carbon-dioxide,304.18,73.8,10.6,0.09433962264150944,1.3,5.876287262872629,0.0006543591999999999
395.43,436.13,16241.0,6.1572e-05,15.632,18.318,66.384,39.677,78.076,513.5,0.047681,61.879,0.080163,supercritical,CO2,C124389,carbon-dioxide,304.18,73.8,10.6,0.09433962264150944,1.3,5.909620596205962,0.0006526631999999999
395.43,438.58,16283.0,6.1415e-05,15.615,18.308,66.322,39.679,77.968,515.44,0.046881,62.129,0.080402,supercritical,CO2,C124389,carbon-dioxide,304.18,73.8,10.6,0.09433962264150944,1.3,5.942818428184282,0.0006509989999999999
395.43,441.04,16324.0,6.1261e-05,15.598,18.3,66.262,39.681,77.862,517.36,0.046093,62.377,0.08064,supercritical,CO2,C124389,carbon-dioxide,304.18,73.8,10.6,0.09433962264150944,1.3,5.976151761517616,0.0006493666
395.43,443.5,16364.0,6.1108e-05,15.581,18.291,66.202,39.683,77.756,519.28,0.045317,62.625,0.080876,supercritical,CO2,C124389,carbon-dioxide,304.18,73.8,10.6,0.09433962264150944,1.3,6.009485094850949,0.0006477448
395.43,445.96,16405.0,6.0958e-05,15.564,18.282,66.142,39.685,77.652,521.2,0.044553,62.872,0.081112,supercritical,CO2,C124389,carbon-dioxide,304.18,73.8,10.6,0.09433962264150944,1.3,6.042818428184281,0.0006461548