Temperature (K),Pressure (bar),Density (mol/m3),Volume (m3/mol),Internal Energy (kJ/mol),Enthalpy (kJ/mol),Entropy (J/mol*K),Cv (J/mol*K),Cp (J/mol*K),Sound Spd. (m/s),Joule-Thomson (K/bar),Viscosity (uPa*s),Therm. Cond. (W/m*K),Phase,substance,substance_id,substance_name,Tc,Pc,rhoc,Vmc,Tr,Pr,Vmr
216.41,261.71,18397.0,5.4357e-05,1.6568,3.0795,138.62,23.97,55.9,416.43,0.06847,39.475,0.05643,supercritical,O2,C7782447,oxygen,154.58,50.43,13.6,0.07352941176470588,1.4,5.1895697005750545,0.0007392552
216.41,263.08,18454.0,5.4189e-05,1.6487,3.0743,138.56,23.972,55.82,417.83,0.067464,39.618,0.056602,supercritical,O2,C7782447,oxygen,154.58,50.43,13.6,0.07352941176470588,1.4,5.2167360697997225,0.0007369704
216.41,264.44,18511.0,5.4023e-05,1.6406,3.0692,138.5,23.974,55.74,419.22,0.066471,39.76,0.056774,supercritical,O2,C7782447,oxygen,154.58,50.43,13.6,0.07352941176470588,1.4,5.243704144358516,0.0007347127999999999
216.41,265.81,18567.0,5.386e-05,1.6325,3.0642,138.45,23.976,55.66,420.61,0.065492,39.902,0.056945,supercritical,O2,C7782447,oxygen,154.58,50.43,13.6,0.07352941176470588,1.4,5.270870513583184,0.000732496
216.41,267.18,18622.0,5.3699e-05,1.6245,3.0592,138.39,23.979,55.58,422.0,0.064526,40.043,0.057116,supercritical,O2,C7782447,oxygen,154.58,50.43,13.6,0.07352941176470588,1.4,5.298036882807852,0.0007303064
216.41,268.54,18678.0,5.354e-05,1.6166,3.0544,138.33,23.981,55.501,423.39,0.063573,40.184,0.057286,supercritical,O2,C7782447,oxygen,154.58,50.43,13.6,0.07352941176470588,1.4,5.325004957366647,0.000728144
216.41,269.9,18733.0,5.3383e-05,1.6088,3.0496,138.28,23.983,55.422,424.77,0.062633,40.324,0.057455,supercritical,O2,C7782447,oxygen,154.58,50.43,13.6,0.07352941176470588,1.4,5.351973031925441,0.0007260087999999999
216.41,271.27,18787.0,5.3228e-05,1.601,3.0449,138.22,23.985,55.344,426.15,0.061705,40.464,0.057623,supercritical,O2,C7782447,oxygen,154.58,50.43,13.6,0.07352941176470588,1.4,5.379139401150109,0.0007239007999999999
216.41,272.63,18841.0,5.3076e-05,1.5932,3.0403,138.17,23.987,55.266,427.52,0.06079,40.603,0.057791,supercritical,O2,C7782447,oxygen,154.58,50.43,13.6,0.07352941176470588,1.4,5.406107475708903,0.0007218336
216.41,274.0,18895.0,5.2925e-05,1.5856,3.0357,138.11,23.99,55.189,428.89,0.059887,40.742,0.057958,supercritical,O2,C7782447,oxygen,154.58,50.43,13.6,0.07352941176470588,1.4,5.433273844933571,0.0007197799999999999
216.41,275.37,18948.0,5.2777e-05,1.578,3.0312,138.06,23.992,55.112,430.26,0.058995,40.88,0.058124,supercritical,O2,C7782447,oxygen,154.58,50.43,13.6,0.07352941176470588,1.4,5.460440214158239,0.0007177672
216.41,276.73,19000.0,5.263e-05,1.5704,3.0268,138.01,23.994,55.035,431.62,0.058116,41.018,0.05829,supercritical,O2,C7782447,oxygen,154.58,50.43,13.6,0.07352941176470588,1.4,5.487408288717034,0.000715768
216.41,278.1,19053.0,5.2486e-05,1.5629,3.0225,137.95,23.997,54.959,432.98,0.057247,41.155,0.058455,supercritical,O2,C7782447,oxygen,154.58,50.43,13.6,0.07352941176470588,1.4,5.514574657941702,0.0007138095999999999
216.41,279.46,19105.0,5.2343e-05,1.5555,3.0182,137.9,23.999,54.883,434.33,0.05639,41.292,0.05862,supercritical,O2,C7782447,oxygen,154.58,50.43,13.6,0.07352941176470588,1.4,5.541542732500496,0.0007118647999999999
216.41,280.82,19156.0,5.2202e-05,1.5481,3.0141,137.85,24.001,54.808,435.69,0.055545,41.428,0.058784,supercritical,O2,C7782447,oxygen,154.58,50.43,13.6,0.07352941176470588,1.4,5.56851080705929,0.0007099472
216.41,282.19,19207.0,5.2063e-05,1.5408,3.0099,137.8,24.004,54.733,437.03,0.05471,41.564,0.058947,supercritical,O2,C7782447,oxygen,154.58,50.43,13.6,0.07352941176470588,1.4,5.595677176283958,0.0007080567999999999
216.41,283.56,19258.0,5.1926e-05,1.5335,3.0059,137.74,24.006,54.659,438.38,0.053885,41.7,0.05911,supercritical,O2,C7782447,oxygen,154.58,50.43,13.6,0.07352941176470588,1.4,5.622843545508626,0.0007061935999999999
216.41,284.92,19308.0,5.1791e-05,1.5263,3.0019,137.69,24.009,54.585,439.72,0.053072,41.835,0.059272,supercritical,O2,C7782447,oxygen,154.58,50.43,13.6,0.07352941176470588,1.4,5.64981162006742,0.0007043576
216.41,286.29,19358.0,5.1657e-05,1.5191,2.998,137.64,24.011,54.512,441.06,0.052268,41.969,0.059434,supercritical,O2,C7782447,oxygen,154.58,50.43,13.6,0.07352941176470588,1.4,5.676977989292088,0.0007025352
216.41,287.65,19408.0,5.1525e-05,1.512,2.9941,137.59,24.014,54.439,442.39,0.051475,42.104,0.059595,supercritical,O2,C7782447,oxygen,154.58,50.43,13.6,0.07352941176470588,1.4,5.703946063850882,0.0007007399999999999
216.41,289.01,19457.0,5.1395e-05,1.5049,2.9903,137.54,24.016,54.366,443.72,0.050692,42.237,0.059756,supercritical,O2,C7782447,oxygen,154.58,50.43,13.6,0.07352941176470588,1.4,5.730914138409677,0.000698972
216.41,290.38,19506.0,5.1266e-05,1.4979,2.9866,137.49,24.019,54.294,445.05,0.049919,42.371,0.059916,supercritical,O2,C7782447,oxygen,154.58,50.43,13.6,0.07352941176470588,1.4,5.758080507634345,0.0006972176
216.41,291.75,19555.0,5.1139e-05,1.491,2.9829,137.44,24.022,54.223,446.37,0.049155,42.504,0.060075,supercritical,O2,C7782447,oxygen,154.58,50.43,13.6,0.07352941176470588,1.4,5.785246876859013,0.0006954903999999999
216.41,293.11,19603.0,5.1013e-05,1.4841,2.9793,137.39,24.024,54.152,447.68,0.048401,42.636,0.060234,supercritical,O2,C7782447,oxygen,154.58,50.43,13.6,0.07352941176470588,1.4,5.812214951417807,0.0006937768
216.41,294.48,19651.0,5.0889e-05,1.4772,2.9758,137.35,24.027,54.081,449.0,0.047656,42.768,0.060392,supercritical,O2,C7782447,oxygen,154.58,50.43,13.6,0.07352941176470588,1.4,5.839381320642475,0.0006920903999999999
216.41,295.84,19698.0,5.0767e-05,1.4704,2.9723,137.3,24.03,54.011,450.31,0.046921,42.9,0.06055,supercritical,O2,C7782447,oxygen,154.58,50.43,13.6,0.07352941176470588,1.4,5.866349395201269,0.0006904311999999999
216.41,297.2,19745.0,5.0645e-05,1.4636,2.9689,137.25,24.032,53.942,451.62,0.046194,43.031,0.060708,supercritical,O2,C7782447,oxygen,154.58,50.43,13.6,0.07352941176470588,1.4,5.893317469760063,0.0006887719999999999
216.41,298.57,19792.0,5.0526e-05,1.4569,2.9655,137.2,24.035,53.873,452.92,0.045476,43.162,0.060865,supercritical,O2,C7782447,oxygen,154.58,50.43,13.6,0.07352941176470588,1.4,5.920483838984731,0.0006871535999999999
216.41,299.94,19838.0,5.0407e-05,1.4503,2.9622,137.15,24.038,53.804,454.22,0.044768,43.293,0.061021,supercritical,O2,C7782447,oxygen,154.58,50.43,13.6,0.07352941176470588,1.4,5.947650208209399,0.0006855352
216.41,301.3,19884.0,5.0291e-05,1.4436,2.9589,137.11,24.041,53.736,455.51,0.044067,43.423,0.061177,supercritical,O2,C7782447,oxygen,154.58,50.43,13.6,0.07352941176470588,1.4,5.974618282768194,0.0006839575999999999
216.41,302.67,19930.0,5.0175e-05,1.4371,2.9557,137.06,24.044,53.668,456.8,0.043375,43.553,0.061333,supercritical,O2,C7782447,oxygen,154.58,50.43,13.6,0.07352941176470588,1.4,6.001784651992862,0.00068238
216.41,304.03,19976.0,5.0061e-05,1.4305,2.9525,137.02,24.047,53.601,458.09,0.042692,43.682,0.061488,supercritical,O2,C7782447,oxygen,154.58,50.43,13.6,0.07352941176470588,1.4,6.028752726551655,0.0006808296
216.41,305.39,20021.0,4.9948e-05,1.4241,2.9494,136.97,24.049,53.534,459.38,0.042017,43.811,0.061642,supercritical,O2,C7782447,oxygen,154.58,50.43,13.6,0.07352941176470588,1.4,6.05572080111045,0.0006792927999999999
216.41,306.76,20066.0,4.9836e-05,1.4176,2.9464,136.92,24.052,53.468,460.65,0.041349,43.94,0.061796,supercritical,O2,C7782447,oxygen,154.58,50.43,13.6,0.07352941176470588,1.4,6.082887170335118,0.0006777696
216.41,308.12,20110.0,4.9726e-05,1.4112,2.9434,136.88,24.055,53.402,461.93,0.04069,44.068,0.06195,supercritical,O2,C7782447,oxygen,154.58,50.43,13.6,0.07352941176470588,1.4,6.109855244893913,0.0006762735999999999
216.41,309.49,20154.0,4.9617e-05,1.4049,2.9405,136.83,24.058,53.337,463.2,0.040038,44.196,0.062103,supercritical,O2,C7782447,oxygen,154.58,50.43,13.6,0.07352941176470588,1.4,6.137021614118581,0.0006747912000000001
216.41,310.86,20198.0,4.9509e-05,1.3986,2.9376,136.79,24.061,53.272,464.47,0.039395,44.324,0.062256,supercritical,O2,C7782447,oxygen,154.58,50.43,13.6,0.07352941176470588,1.4,6.164187983343249,0.0006733224
216.41,312.22,20242.0,4.9402e-05,1.3923,2.9347,136.74,24.064,53.208,465.74,0.038758,44.451,0.062408,supercritical,O2,C7782447,oxygen,154.58,50.43,13.6,0.07352941176470588,1.4,6.191156057902043,0.0006718672
216.41,313.58,20285.0,4.9297e-05,1.3861,2.932,136.7,24.067,53.144,467.0,0.038129,44.578,0.06256,supercritical,O2,C7782447,oxygen,154.58,50.43,13.6,0.07352941176470588,1.4,6.2181241324608365,0.0006704392
216.41,314.95,20328.0,4.9192e-05,1.3799,2.9292,136.66,24.07,53.08,468.26,0.037508,44.705,0.062712,supercritical,O2,C7782447,oxygen,154.58,50.43,13.6,0.07352941176470588,1.4,6.2452905016855045,0.0006690111999999999
216.41,316.31,20371.0,4.9089e-05,1.3738,2.9265,136.61,24.073,53.017,469.51,0.036893,44.831,0.062863,supercritical,O2,C7782447,oxygen,154.58,50.43,13.6,0.07352941176470588,1.4,6.272258576244299,0.0006676103999999999
216.41,317.68,20414.0,4.8987e-05,1.3677,2.9239,136.57,24.076,52.955,470.76,0.036286,44.957,0.063013,supercritical,O2,C7782447,oxygen,154.58,50.43,13.6,0.07352941176470588,1.4,6.299424945468967,0.0006662231999999999
216.41,319.05,20456.0,4.8886e-05,1.3616,2.9213,136.53,24.08,52.893,472.0,0.035686,45.083,0.063164,supercritical,O2,C7782447,oxygen,154.58,50.43,13.6,0.07352941176470588,1.4,6.326591314693635,0.0006648496
216.41,320.41,20498.0,4.8786e-05,1.3556,2.9187,136.48,24.083,52.831,473.25,0.035092,45.208,0.063314,supercritical,O2,C7782447,oxygen,154.58,50.43,13.6,0.07352941176470588,1.4,6.35355938925243,0.0006634896
216.41,321.77,20539.0,4.8687e-05,1.3496,2.9162,136.44,24.086,52.77,474.49,0.034505,45.333,0.063463,supercritical,O2,C7782447,oxygen,154.58,50.43,13.6,0.07352941176470588,1.4,6.380527463811223,0.0006621432
216.41,323.14,20581.0,4.8589e-05,1.3436,2.9137,136.4,24.089,52.709,475.72,0.033925,45.458,0.063612,supercritical,O2,C7782447,oxygen,154.58,50.43,13.6,0.07352941176470588,1.4,6.407693833035891,0.0006608104
216.41,324.5,20622.0,4.8492e-05,1.3377,2.9113,136.36,24.092,52.649,476.95,0.033351,45.582,0.063761,supercritical,O2,C7782447,oxygen,154.58,50.43,13.6,0.07352941176470588,1.4,6.434661907594686,0.0006594912
216.41,325.87,20663.0,4.8396e-05,1.3319,2.909,136.32,24.095,52.589,478.18,0.032784,45.706,0.063909,supercritical,O2,C7782447,oxygen,154.58,50.43,13.6,0.07352941176470588,1.4,6.461828276819354,0.0006581856
216.41,327.24,20703.0,4.8301e-05,1.326,2.9066,136.28,24.099,52.53,479.4,0.032223,45.83,0.064057,supercritical,O2,C7782447,oxygen,154.58,50.43,13.6,0.07352941176470588,1.4,6.488994646044022,0.0006568936
216.41,328.6,20744.0,4.8207e-05,1.3202,2.9043,136.23,24.102,52.471,480.62,0.031669,45.954,0.064205,supercritical,O2,C7782447,oxygen,154.58,50.43,13.6,0.07352941176470588,1.4,6.515962720602817,0.0006556152
216.41,329.96,20784.0,4.8115e-05,1.3145,2.9021,136.19,24.105,52.413,481.84,0.03112,46.077,0.064352,supercritical,O2,C7782447,oxygen,154.58,50.43,13.6,0.07352941176470588,1.4,6.54293079516161,0.000654364
216.41,331.33,20824.0,4.8023e-05,1.3087,2.8999,136.15,24.108,52.354,483.05,0.030578,46.2,0.064499,supercritical,O2,C7782447,oxygen,154.58,50.43,13.6,0.07352941176470588,1.4,6.5700971643862776,0.0006531127999999999
216.41,332.69,20863.0,4.7931e-05,1.3031,2.8977,136.11,24.112,52.297,484.26,0.030042,46.322,0.064646,supercritical,O2,C7782447,oxygen,154.58,50.43,13.6,0.07352941176470588,1.4,6.597065238945072,0.0006518616
216.41,334.06,20902.0,4.7841e-05,1.2974,2.8956,136.07,24.115,52.24,485.47,0.029511,46.444,0.064792,supercritical,O2,C7782447,oxygen,154.58,50.43,13.6,0.07352941176470588,1.4,6.62423160816974,0.0006506375999999999
216.41,335.43,20942.0,4.7752e-05,1.2918,2.8935,136.03,24.118,52.183,486.67,0.028986,46.566,0.064938,supercritical,O2,C7782447,oxygen,154.58,50.43,13.6,0.07352941176470588,1.4,6.651397977394408,0.0006494272
216.41,336.79,20980.0,4.7664e-05,1.2862,2.8915,135.99,24.122,52.127,487.87,0.028467,46.688,0.065083,supercritical,O2,C7782447,oxygen,154.58,50.43,13.6,0.07352941176470588,1.4,6.678366051953203,0.0006482304
216.41,338.15,21019.0,4.7576e-05,1.2807,2.8895,135.95,24.125,52.071,489.07,0.027954,46.81,0.065229,supercritical,O2,C7782447,oxygen,154.58,50.43,13.6,0.07352941176470588,1.4,6.705334126511996,0.0006470336
216.41,339.52,21057.0,4.7489e-05,1.2751,2.8875,135.92,24.128,52.015,490.26,0.027446,46.931,0.065373,supercritical,O2,C7782447,oxygen,154.58,50.43,13.6,0.07352941176470588,1.4,6.732500495736664,0.0006458503999999999
216.41,340.88,21096.0,4.7403e-05,1.2696,2.8856,135.88,24.132,51.96,491.45,0.026943,47.052,0.065518,supercritical,O2,C7782447,oxygen,154.58,50.43,13.6,0.07352941176470588,1.4,6.759468570295459,0.0006446808
216.41,342.25,21133.0,4.7318e-05,1.2642,2.8837,135.84,24.135,51.905,492.63,0.026446,47.172,0.065662,supercritical,O2,C7782447,oxygen,154.58,50.43,13.6,0.07352941176470588,1.4,6.786634939520127,0.0006435248
216.41,343.62,21171.0,4.7234e-05,1.2588,2.8818,135.8,24.139,51.851,493.81,0.025954,47.293,0.065806,supercritical,O2,C7782447,oxygen,154.58,50.43,13.6,0.07352941176470588,1.4,6.813801308744795,0.0006423824
216.41,344.98,21209.0,4.7151e-05,1.2534,2.88,135.76,24.142,51.797,494.99,0.025467,47.413,0.06595,supercritical,O2,C7782447,oxygen,154.58,50.43,13.6,0.07352941176470588,1.4,6.84076938330359,0.0006412536
216.41,346.35,21246.0,4.7068e-05,1.248,2.8782,135.72,24.146,51.744,496.17,0.024986,47.533,0.066093,supercritical,O2,C7782447,oxygen,154.58,50.43,13.6,0.07352941176470588,1.4,6.867935752528258,0.0006401247999999999
216.41,347.71,21283.0,4.6986e-05,1.2427,2.8765,135.69,24.149,51.691,497.34,0.024509,47.652,0.066236,supercritical,O2,C7782447,oxygen,154.58,50.43,13.6,0.07352941176470588,1.4,6.894903827087051,0.0006390095999999999
216.41,349.07,21320.0,4.6905e-05,1.2374,2.8747,135.65,24.152,51.638,498.5,0.024037,47.772,0.066378,supercritical,O2,C7782447,oxygen,154.58,50.43,13.6,0.07352941176470588,1.4,6.921871901645845,0.000637908
216.41,350.44,21356.0,4.6825e-05,1.2322,2.8731,135.61,24.156,51.586,499.67,0.023571,47.891,0.066521,supercritical,O2,C7782447,oxygen,154.58,50.43,13.6,0.07352941176470588,1.4,6.949038270870513,0.00063682
216.41,351.81,21393.0,4.6745e-05,1.2269,2.8714,135.57,24.159,51.534,500.83,0.023109,48.01,0.066663,supercritical,O2,C7782447,oxygen,154.58,50.43,13.6,0.07352941176470588,1.4,6.976204640095181,0.000635732
216.41,353.17,21429.0,4.6666e-05,1.2217,2.8698,135.54,24.163,51.483,501.99,0.022652,48.128,0.066805,supercritical,O2,C7782447,oxygen,154.58,50.43,13.6,0.07352941176470588,1.4,7.003172714653976,0.0006346575999999999
216.41,354.54,21465.0,4.6588e-05,1.2165,2.8682,135.5,24.166,51.431,503.14,0.022199,48.247,0.066946,supercritical,O2,C7782447,oxygen,154.58,50.43,13.6,0.07352941176470588,1.4,7.030339083878644,0.0006335968
216.41,355.9,21501.0,4.651e-05,1.2114,2.8667,135.46,24.17,51.381,504.29,0.021752,48.365,0.067087,supercritical,O2,C7782447,oxygen,154.58,50.43,13.6,0.07352941176470588,1.4,7.057307158437438,0.000632536
216.41,357.26,21536.0,4.6434e-05,1.2063,2.8652,135.43,24.174,51.33,505.44,0.021308,48.483,0.067228,supercritical,O2,C7782447,oxygen,154.58,50.43,13.6,0.07352941176470588,1.4,7.084275232996232,0.0006315024000000001
216.41,358.63,21571.0,4.6358e-05,1.2012,2.8637,135.39,24.177,51.28,506.58,0.02087,48.601,0.067369,supercritical,O2,C7782447,oxygen,154.58,50.43,13.6,0.07352941176470588,1.4,7.1114416022209,0.0006304688
216.41,360.0,21607.0,4.6282e-05,1.1961,2.8623,135.36,24.181,51.231,507.72,0.020435,48.718,0.067509,supercritical,O2,C7782447,oxygen,154.58,50.43,13.6,0.07352941176470588,1.4,7.138607971445568,0.0006294352
216.41,361.36,21642.0,4.6207e-05,1.1911,2.8609,135.32,24.184,51.182,508.86,0.020005,48.835,0.067649,supercritical,O2,C7782447,oxygen,154.58,50.43,13.6,0.07352941176470588,1.4,7.165576046004363,0.0006284152
216.41,362.73,21676.0,4.6133e-05,1.1861,2.8595,135.28,24.188,51.133,509.99,0.01958,48.952,0.067789,supercritical,O2,C7782447,oxygen,154.58,50.43,13.6,0.07352941176470588,1.4,7.192742415229031,0.0006274088
216.41,364.09,21711.0,4.606e-05,1.1811,2.8581,135.25,24.191,51.084,511.13,0.019158,49.069,0.067928,supercritical,O2,C7782447,oxygen,154.58,50.43,13.6,0.07352941176470588,1.4,7.219710489787825,0.000626416
216.41,365.45,21745.0,4.5987e-05,1.1762,2.8568,135.21,24.195,51.036,512.25,0.018741,49.186,0.068067,supercritical,O2,C7782447,oxygen,154.58,50.43,13.6,0.07352941176470588,1.4,7.2466785643466185,0.0006254231999999999
216.41,366.82,21780.0,4.5915e-05,1.1713,2.8555,135.18,24.199,50.988,513.38,0.018328,49.302,0.068206,supercritical,O2,C7782447,oxygen,154.58,50.43,13.6,0.07352941176470588,1.4,7.2738449335712865,0.0006244439999999999
216.41,368.19,21814.0,4.5843e-05,1.1664,2.8543,135.14,24.202,50.941,514.5,0.017919,49.418,0.068345,supercritical,O2,C7782447,oxygen,154.58,50.43,13.6,0.07352941176470588,1.4,7.3010113027959544,0.0006234648
216.41,369.55,21847.0,4.5772e-05,1.1615,2.853,135.11,24.206,50.894,515.62,0.017514,49.534,0.068484,supercritical,O2,C7782447,oxygen,154.58,50.43,13.6,0.07352941176470588,1.4,7.327979377354749,0.0006224992
216.41,370.92,21881.0,4.5702e-05,1.1567,2.8518,135.08,24.21,50.847,516.73,0.017113,49.65,0.068622,supercritical,O2,C7782447,oxygen,154.58,50.43,13.6,0.07352941176470588,1.4,7.355145746579417,0.0006215471999999999
216.41,372.28,21914.0,4.5632e-05,1.1519,2.8506,135.04,24.213,50.8,517.84,0.016716,49.765,0.06876,supercritical,O2,C7782447,oxygen,154.58,50.43,13.6,0.07352941176470588,1.4,7.382113821138211,0.0006205952
216.41,373.64,21948.0,4.5563e-05,1.1471,2.8495,135.01,24.217,50.754,518.95,0.016322,49.88,0.068897,supercritical,O2,C7782447,oxygen,154.58,50.43,13.6,0.07352941176470588,1.4,7.409081895697006,0.0006196568
216.41,375.01,21981.0,4.5494e-05,1.1423,2.8484,134.97,24.221,50.709,520.06,0.015933,49.995,0.069035,supercritical,O2,C7782447,oxygen,154.58,50.43,13.6,0.07352941176470588,1.4,7.436248264921674,0.0006187184
216.41,376.38,22014.0,4.5426e-05,1.1376,2.8473,134.94,24.224,50.663,521.16,0.015547,50.11,0.069172,supercritical,O2,C7782447,oxygen,154.58,50.43,13.6,0.07352941176470588,1.4,7.463414634146341,0.0006177936
216.41,377.74,22047.0,4.5359e-05,1.1329,2.8462,134.91,24.228,50.618,522.26,0.015165,50.225,0.069309,supercritical,O2,C7782447,oxygen,154.58,50.43,13.6,0.07352941176470588,1.4,7.490382708705136,0.0006168823999999999
216.41,379.11,22079.0,4.5292e-05,1.1282,2.8452,134.87,24.232,50.573,523.36,0.014787,50.339,0.069445,supercritical,O2,C7782447,oxygen,154.58,50.43,13.6,0.07352941176470588,1.4,7.517549077929804,0.0006159712
216.41,380.47,22112.0,4.5225e-05,1.1235,2.8442,134.84,24.235,50.529,524.45,0.014412,50.454,0.069582,supercritical,O2,C7782447,oxygen,154.58,50.43,13.6,0.07352941176470588,1.4,7.5445171524885986,0.00061506
216.41,381.83,22144.0,4.5159e-05,1.1189,2.8432,134.81,24.239,50.485,525.54,0.014041,50.568,0.069718,supercritical,O2,C7782447,oxygen,154.58,50.43,13.6,0.07352941176470588,1.4,7.5714852270473925,0.0006141623999999999
216.41,383.2,22176.0,4.5094e-05,1.1143,2.8423,134.77,24.243,50.441,526.63,0.013673,50.681,0.069854,supercritical,O2,C7782447,oxygen,154.58,50.43,13.6,0.07352941176470588,1.4,7.59865159627206,0.0006132784
216.41,384.56,22208.0,4.5029e-05,1.1097,2.8413,134.74,24.246,50.397,527.71,0.013309,50.795,0.06999,supercritical,O2,C7782447,oxygen,154.58,50.43,13.6,0.07352941176470588,1.4,7.625619670830854,0.0006123944
216.41,385.93,22240.0,4.4965e-05,1.1051,2.8404,134.71,24.25,50.354,528.79,0.012948,50.909,0.070125,supercritical,O2,C7782447,oxygen,154.58,50.43,13.6,0.07352941176470588,1.4,7.652786040055522,0.000611524
216.41,387.3,22271.0,4.4901e-05,1.1006,2.8396,134.68,24.254,50.311,529.87,0.01259,51.022,0.07026,supercritical,O2,C7782447,oxygen,154.58,50.43,13.6,0.07352941176470588,1.4,7.67995240928019,0.0006106536
216.41,388.66,22303.0,4.4838e-05,1.096,2.8387,134.64,24.258,50.269,530.95,0.012236,51.135,0.070395,supercritical,O2,C7782447,oxygen,154.58,50.43,13.6,0.07352941176470588,1.4,7.706920483838985,0.0006097968