Temperature (K),Pressure (bar),Density (mol/m3),Volume (m3/mol),Internal Energy (kJ/mol),Enthalpy (kJ/mol),Entropy (J/mol*K),Cv (J/mol*K),Cp (J/mol*K),Sound Spd. (m/s),Joule-Thomson (K/bar),Viscosity (uPa*s),Therm. Cond. (W/m*K),Phase,substance,substance_id,substance_name,Tc,Pc,rhoc,Vmc,Tr,Pr,Vmr
185.5,518.34,27949.0,3.578e-05,-0.49025,1.3643,124.75,25.631,48.242,698.17,-0.021402,78.451,0.098943,supercritical,O2,C7782447,oxygen,154.58,50.43,13.6,0.07352941176470588,1.2,10.278405710886378,0.000486608
185.5,519.7,27965.0,3.5759e-05,-0.49262,1.3657,124.73,25.635,48.22,698.98,-0.021507,78.569,0.099065,supercritical,O2,C7782447,oxygen,154.58,50.43,13.6,0.07352941176470588,1.2,10.305373785445173,0.0004863224
185.5,521.07,27982.0,3.5738e-05,-0.495,1.3672,124.71,25.639,48.199,699.78,-0.02161,78.688,0.099187,supercritical,O2,C7782447,oxygen,154.58,50.43,13.6,0.07352941176470588,1.2,10.332540154669841,0.0004860368
185.5,522.43,27998.0,3.5717e-05,-0.49736,1.3686,124.69,25.644,48.177,700.59,-0.021713,78.806,0.099308,supercritical,O2,C7782447,oxygen,154.58,50.43,13.6,0.07352941176470588,1.2,10.359508229228632,0.00048575119999999994
185.5,523.79,28014.0,3.5696e-05,-0.49971,1.37,124.67,25.648,48.156,701.39,-0.021816,78.924,0.099429,supercritical,O2,C7782447,oxygen,154.58,50.43,13.6,0.07352941176470588,1.2,10.386476303787427,0.00048546559999999996
185.5,525.16,28031.0,3.5675e-05,-0.50206,1.3715,124.65,25.652,48.135,702.19,-0.021918,79.042,0.09955,supercritical,O2,C7782447,oxygen,154.58,50.43,13.6,0.07352941176470588,1.2,10.413642673012095,0.00048518
185.5,526.52,28047.0,3.5655e-05,-0.5044,1.3729,124.64,25.656,48.114,702.99,-0.022019,79.16,0.099671,supercritical,O2,C7782447,oxygen,154.58,50.43,13.6,0.07352941176470588,1.2,10.44061074757089,0.00048490800000000004
185.5,527.89,28063.0,3.5634e-05,-0.50674,1.3744,124.62,25.66,48.093,703.79,-0.022119,79.277,0.099792,supercritical,O2,C7782447,oxygen,154.58,50.43,13.6,0.07352941176470588,1.2,10.467777116795558,0.00048462239999999996
185.5,529.25,28079.0,3.5614e-05,-0.50906,1.3758,124.6,25.665,48.072,704.59,-0.022219,79.395,0.099913,supercritical,O2,C7782447,oxygen,154.58,50.43,13.6,0.07352941176470588,1.2,10.494745191354353,0.0004843504
185.5,530.62,28095.0,3.5593e-05,-0.51138,1.3773,124.58,25.669,48.052,705.38,-0.022319,79.512,0.10003,supercritical,O2,C7782447,oxygen,154.58,50.43,13.6,0.07352941176470588,1.2,10.52191156057902,0.00048406480000000003
185.5,531.99,28111.0,3.5573e-05,-0.51369,1.3787,124.56,25.673,48.031,706.18,-0.022418,79.63,0.10015,supercritical,O2,C7782447,oxygen,154.58,50.43,13.6,0.07352941176470588,1.2,10.549077929803689,0.0004837928
185.5,533.35,28127.0,3.5553e-05,-0.516,1.3802,124.54,25.677,48.011,706.97,-0.022516,79.747,0.10027,supercritical,O2,C7782447,oxygen,154.58,50.43,13.6,0.07352941176470588,1.2,10.576046004362484,0.00048352080000000003
185.5,534.72,28143.0,3.5533e-05,-0.5183,1.3817,124.53,25.681,47.99,707.76,-0.022613,79.865,0.10039,supercritical,O2,C7782447,oxygen,154.58,50.43,13.6,0.07352941176470588,1.2,10.603212373587152,0.0004832488
185.5,536.08,28159.0,3.5513e-05,-0.52059,1.3832,124.51,25.685,47.97,708.55,-0.02271,79.982,0.10051,supercritical,O2,C7782447,oxygen,154.58,50.43,13.6,0.07352941176470588,1.2,10.630180448145946,0.0004829767999999999
185.5,537.45,28175.0,3.5493e-05,-0.52287,1.3847,124.49,25.69,47.95,709.33,-0.022807,80.099,0.10063,supercritical,O2,C7782447,oxygen,154.58,50.43,13.6,0.07352941176470588,1.2,10.657346817370614,0.0004827048
185.5,538.81,28191.0,3.5473e-05,-0.52515,1.3862,124.47,25.694,47.93,710.12,-0.022903,80.216,0.10075,supercritical,O2,C7782447,oxygen,154.58,50.43,13.6,0.07352941176470588,1.2,10.684314891929406,0.0004824327999999999
185.5,540.17,28206.0,3.5453e-05,-0.52742,1.3877,124.45,25.698,47.91,710.9,-0.022998,80.333,0.10087,supercritical,O2,C7782447,oxygen,154.58,50.43,13.6,0.07352941176470588,1.2,10.7112829664882,0.0004821608
185.5,541.54,28222.0,3.5433e-05,-0.52968,1.3892,124.44,25.702,47.89,711.69,-0.023093,80.45,0.10099,supercritical,O2,C7782447,oxygen,154.58,50.43,13.6,0.07352941176470588,1.2,10.738449335712868,0.0004818888
185.5,542.9,28238.0,3.5413e-05,-0.53194,1.3907,124.42,25.706,47.871,712.47,-0.023187,80.566,0.10111,supercritical,O2,C7782447,oxygen,154.58,50.43,13.6,0.07352941176470588,1.2,10.765417410271663,0.0004816168
185.5,544.27,28253.0,3.5394e-05,-0.53419,1.3922,124.4,25.71,47.851,713.25,-0.023281,80.683,0.10123,supercritical,O2,C7782447,oxygen,154.58,50.43,13.6,0.07352941176470588,1.2,10.792583779496331,0.0004813584
185.5,545.63,28269.0,3.5374e-05,-0.53643,1.3937,124.38,25.715,47.832,714.02,-0.023374,80.8,0.10135,supercritical,O2,C7782447,oxygen,154.58,50.43,13.6,0.07352941176470588,1.2,10.819551854055126,0.00048108639999999995
185.5,547.0,28285.0,3.5355e-05,-0.53867,1.3952,124.36,25.719,47.812,714.8,-0.023467,80.916,0.10147,supercritical,O2,C7782447,oxygen,154.58,50.43,13.6,0.07352941176470588,1.2,10.846718223279794,0.00048082800000000004
185.5,548.37,28300.0,3.5336e-05,-0.5409,1.3968,124.35,25.723,47.793,715.58,-0.023559,81.032,0.10158,supercritical,O2,C7782447,oxygen,154.58,50.43,13.6,0.07352941176470588,1.2,10.873884592504462,0.0004805696
185.5,549.73,28316.0,3.5316e-05,-0.54312,1.3983,124.33,25.727,47.774,716.35,-0.02365,81.149,0.1017,supercritical,O2,C7782447,oxygen,154.58,50.43,13.6,0.07352941176470588,1.2,10.900852667063257,0.00048029759999999996
185.5,551.1,28331.0,3.5297e-05,-0.54534,1.3999,124.31,25.731,47.755,717.12,-0.023741,81.265,0.10182,supercritical,O2,C7782447,oxygen,154.58,50.43,13.6,0.07352941176470588,1.2,10.928019036287925,0.00048003919999999994
185.5,552.46,28346.0,3.5278e-05,-0.54755,1.4014,124.29,25.735,47.736,717.89,-0.023832,81.381,0.10194,supercritical,O2,C7782447,oxygen,154.58,50.43,13.6,0.07352941176470588,1.2,10.95498711084672,0.00047978079999999997
185.5,553.83,28362.0,3.5259e-05,-0.54975,1.403,124.28,25.739,47.717,718.66,-0.023922,81.497,0.10206,supercritical,O2,C7782447,oxygen,154.58,50.43,13.6,0.07352941176470588,1.2,10.982153480071387,0.0004795224
185.5,555.19,28377.0,3.524e-05,-0.55195,1.4045,124.26,25.743,47.699,719.43,-0.024011,81.613,0.10217,supercritical,O2,C7782447,oxygen,154.58,50.43,13.6,0.07352941176470588,1.2,11.009121554630182,0.000479264
185.5,556.55,28392.0,3.5221e-05,-0.55414,1.4061,124.24,25.747,47.68,720.2,-0.0241,81.729,0.10229,supercritical,O2,C7782447,oxygen,154.58,50.43,13.6,0.07352941176470588,1.2,11.036089629188973,0.0004790056
185.5,557.92,28407.0,3.5202e-05,-0.55633,1.4077,124.22,25.751,47.662,720.96,-0.024188,81.845,0.10241,supercritical,O2,C7782447,oxygen,154.58,50.43,13.6,0.07352941176470588,1.2,11.063255998413641,0.0004787472
185.5,559.28,28423.0,3.5183e-05,-0.5585,1.4092,124.21,25.756,47.643,721.73,-0.024276,81.96,0.10253,supercritical,O2,C7782447,oxygen,154.58,50.43,13.6,0.07352941176470588,1.2,11.090224072972436,0.00047848879999999995
185.5,560.65,28438.0,3.5165e-05,-0.56068,1.4108,124.19,25.76,47.625,722.49,-0.024364,82.076,0.10264,supercritical,O2,C7782447,oxygen,154.58,50.43,13.6,0.07352941176470588,1.2,11.117390442197104,0.00047824399999999996
185.5,562.01,28453.0,3.5146e-05,-0.56284,1.4124,124.17,25.764,47.607,723.25,-0.024451,82.192,0.10276,supercritical,O2,C7782447,oxygen,154.58,50.43,13.6,0.07352941176470588,1.2,11.144358516755899,0.0004779856
185.5,563.38,28468.0,3.5127e-05,-0.565,1.414,124.15,25.768,47.589,724.01,-0.024537,82.307,0.10288,supercritical,O2,C7782447,oxygen,154.58,50.43,13.6,0.07352941176470588,1.2,11.171524885980567,0.00047772719999999996
185.5,564.75,28483.0,3.5109e-05,-0.56715,1.4156,124.14,25.772,47.571,724.77,-0.024623,82.422,0.10299,supercritical,O2,C7782447,oxygen,154.58,50.43,13.6,0.07352941176470588,1.2,11.198691255205235,0.00047748239999999997
185.5,566.11,28498.0,3.509e-05,-0.5693,1.4172,124.12,25.776,47.553,725.52,-0.024708,82.538,0.10311,supercritical,O2,C7782447,oxygen,154.58,50.43,13.6,0.07352941176470588,1.2,11.22565932976403,0.00047722399999999994
185.5,567.48,28513.0,3.5072e-05,-0.57144,1.4188,124.1,25.78,47.535,726.28,-0.024793,82.653,0.10323,supercritical,O2,C7782447,oxygen,154.58,50.43,13.6,0.07352941176470588,1.2,11.252825698988698,0.00047697919999999995
185.5,568.84,28528.0,3.5054e-05,-0.57358,1.4204,124.09,25.784,47.517,727.03,-0.024878,82.768,0.10334,supercritical,O2,C7782447,oxygen,154.58,50.43,13.6,0.07352941176470588,1.2,11.279793773547492,0.0004767344
185.5,570.21,28543.0,3.5035e-05,-0.5757,1.422,124.07,25.788,47.499,727.78,-0.024962,82.883,0.10346,supercritical,O2,C7782447,oxygen,154.58,50.43,13.6,0.07352941176470588,1.2,11.30696014277216,0.000476476
185.5,571.57,28557.0,3.5017e-05,-0.57783,1.4237,124.05,25.792,47.482,728.53,-0.025046,82.998,0.10357,supercritical,O2,C7782447,oxygen,154.58,50.43,13.6,0.07352941176470588,1.2,11.333928217330955,0.0004762312
185.5,572.93,28572.0,3.4999e-05,-0.57994,1.4253,124.03,25.796,47.464,729.28,-0.025129,83.113,0.10369,supercritical,O2,C7782447,oxygen,154.58,50.43,13.6,0.07352941176470588,1.2,11.360896291889746,0.0004759864
185.5,574.3,28587.0,3.4981e-05,-0.58205,1.4269,124.02,25.8,47.447,730.03,-0.025211,83.228,0.10381,supercritical,O2,C7782447,oxygen,154.58,50.43,13.6,0.07352941176470588,1.2,11.388062661114414,0.0004757416
185.5,575.66,28602.0,3.4963e-05,-0.58416,1.4285,124.0,25.804,47.43,730.78,-0.025294,83.342,0.10392,supercritical,O2,C7782447,oxygen,154.58,50.43,13.6,0.07352941176470588,1.2,11.41503073567321,0.00047549679999999995
185.5,577.03,28616.0,3.4945e-05,-0.58626,1.4302,123.98,25.808,47.413,731.53,-0.025375,83.457,0.10404,supercritical,O2,C7782447,oxygen,154.58,50.43,13.6,0.07352941176470588,1.2,11.442197104897877,0.00047525199999999996
185.5,578.39,28631.0,3.4927e-05,-0.58835,1.4318,123.97,25.812,47.396,732.27,-0.025457,83.572,0.10415,supercritical,O2,C7782447,oxygen,154.58,50.43,13.6,0.07352941176470588,1.2,11.469165179456672,0.00047500719999999996
185.5,579.76,28645.0,3.491e-05,-0.59044,1.4335,123.95,25.816,47.379,733.01,-0.025537,83.686,0.10427,supercritical,O2,C7782447,oxygen,154.58,50.43,13.6,0.07352941176470588,1.2,11.49633154868134,0.00047477600000000005
185.5,581.12,28660.0,3.4892e-05,-0.59252,1.4351,123.93,25.82,47.362,733.75,-0.025618,83.801,0.10438,supercritical,O2,C7782447,oxygen,154.58,50.43,13.6,0.07352941176470588,1.2,11.523299623240135,0.00047453119999999995
185.5,582.49,28674.0,3.4874e-05,-0.59459,1.4368,123.92,25.824,47.345,734.5,-0.025698,83.915,0.1045,supercritical,O2,C7782447,oxygen,154.58,50.43,13.6,0.07352941176470588,1.2,11.550465992464803,0.00047428639999999995
185.5,583.86,28689.0,3.4857e-05,-0.59666,1.4385,123.9,25.828,47.328,735.23,-0.025777,84.029,0.10461,supercritical,O2,C7782447,oxygen,154.58,50.43,13.6,0.07352941176470588,1.2,11.57763236168947,0.0004740552
185.5,585.22,28703.0,3.4839e-05,-0.59873,1.4401,123.88,25.832,47.311,735.97,-0.025856,84.143,0.10472,supercritical,O2,C7782447,oxygen,154.58,50.43,13.6,0.07352941176470588,1.2,11.604600436248266,0.00047381040000000005
185.5,586.59,28718.0,3.4822e-05,-0.60079,1.4418,123.87,25.836,47.295,736.71,-0.025935,84.257,0.10484,supercritical,O2,C7782447,oxygen,154.58,50.43,13.6,0.07352941176470588,1.2,11.631766805472934,0.0004735792
185.5,587.95,28732.0,3.4804e-05,-0.60284,1.4435,123.85,25.84,47.278,737.44,-0.026013,84.372,0.10495,supercritical,O2,C7782447,oxygen,154.58,50.43,13.6,0.07352941176470588,1.2,11.658734880031728,0.0004733344
185.5,589.32,28747.0,3.4787e-05,-0.60489,1.4452,123.83,25.844,47.262,738.18,-0.026091,84.485,0.10507,supercritical,O2,C7782447,oxygen,154.58,50.43,13.6,0.07352941176470588,1.2,11.685901249256396,0.00047310319999999996
185.5,590.68,28761.0,3.477e-05,-0.60693,1.4468,123.82,25.848,47.246,738.91,-0.026169,84.599,0.10518,supercritical,O2,C7782447,oxygen,154.58,50.43,13.6,0.07352941176470588,1.2,11.71286932381519,0.000472872
185.5,592.04,28775.0,3.4752e-05,-0.60896,1.4485,123.8,25.852,47.229,739.64,-0.026246,84.713,0.10529,supercritical,O2,C7782447,oxygen,154.58,50.43,13.6,0.07352941176470588,1.2,11.739837398373982,0.0004726272
185.5,593.41,28789.0,3.4735e-05,-0.61099,1.4502,123.78,25.856,47.213,740.37,-0.026322,84.827,0.10541,supercritical,O2,C7782447,oxygen,154.58,50.43,13.6,0.07352941176470588,1.2,11.76700376759865,0.000472396
185.5,594.77,28804.0,3.4718e-05,-0.61302,1.4519,123.77,25.859,47.197,741.1,-0.026398,84.941,0.10552,supercritical,O2,C7782447,oxygen,154.58,50.43,13.6,0.07352941176470588,1.2,11.793971842157445,0.0004721648
185.5,596.14,28818.0,3.4701e-05,-0.61504,1.4536,123.75,25.863,47.181,741.83,-0.026474,85.054,0.10564,supercritical,O2,C7782447,oxygen,154.58,50.43,13.6,0.07352941176470588,1.2,11.821138211382113,0.00047193359999999994
185.5,597.5,28832.0,3.4684e-05,-0.61705,1.4553,123.74,25.867,47.165,742.56,-0.02655,85.168,0.10575,supercritical,O2,C7782447,oxygen,154.58,50.43,13.6,0.07352941176470588,1.2,11.848106285940908,0.00047170240000000003
185.5,598.87,28846.0,3.4667e-05,-0.61906,1.457,123.72,25.871,47.149,743.28,-0.026624,85.281,0.10586,supercritical,O2,C7782447,oxygen,154.58,50.43,13.6,0.07352941176470588,1.2,11.875272655165576,0.00047147119999999996
185.5,600.24,28860.0,3.465e-05,-0.62106,1.4588,123.7,25.875,47.134,744.01,-0.026699,85.395,0.10597,supercritical,O2,C7782447,oxygen,154.58,50.43,13.6,0.07352941176470588,1.2,11.902439024390244,0.00047124
185.5,601.6,28874.0,3.4633e-05,-0.62306,1.4605,123.69,25.879,47.118,744.73,-0.026773,85.508,0.10609,supercritical,O2,C7782447,oxygen,154.58,50.43,13.6,0.07352941176470588,1.2,11.929407098949039,0.0004710088
185.5,602.97,28888.0,3.4617e-05,-0.62505,1.4622,123.67,25.883,47.102,745.45,-0.026847,85.621,0.1062,supercritical,O2,C7782447,oxygen,154.58,50.43,13.6,0.07352941176470588,1.2,11.956573468173707,0.00047079119999999993
185.5,604.33,28902.0,3.46e-05,-0.62704,1.4639,123.65,25.887,47.087,746.17,-0.02692,85.734,0.10631,supercritical,O2,C7782447,oxygen,154.58,50.43,13.6,0.07352941176470588,1.2,11.983541542732501,0.00047056
185.5,605.7,28916.0,3.4583e-05,-0.62902,1.4657,123.64,25.891,47.071,746.89,-0.026993,85.847,0.10642,supercritical,O2,C7782447,oxygen,154.58,50.43,13.6,0.07352941176470588,1.2,12.01070791195717,0.00047032879999999995
185.5,607.06,28930.0,3.4567e-05,-0.631,1.4674,123.62,25.895,47.056,747.61,-0.027066,85.96,0.10654,supercritical,O2,C7782447,oxygen,154.58,50.43,13.6,0.07352941176470588,1.2,12.037675986515962,0.0004701112
185.5,608.42,28944.0,3.455e-05,-0.63297,1.4691,123.61,25.898,47.041,748.33,-0.027138,86.073,0.10665,supercritical,O2,C7782447,oxygen,154.58,50.43,13.6,0.07352941176470588,1.2,12.064644061074757,0.00046988
185.5,609.79,28957.0,3.4534e-05,-0.63494,1.4709,123.59,25.902,47.026,749.04,-0.02721,86.186,0.10676,supercritical,O2,C7782447,oxygen,154.58,50.43,13.6,0.07352941176470588,1.2,12.091810430299425,0.00046966239999999995
185.5,611.15,28971.0,3.4517e-05,-0.6369,1.4726,123.57,25.906,47.01,749.76,-0.027282,86.299,0.10687,supercritical,O2,C7782447,oxygen,154.58,50.43,13.6,0.07352941176470588,1.2,12.118778504858218,0.0004694312
185.5,612.52,28985.0,3.4501e-05,-0.63885,1.4744,123.56,25.91,46.995,750.47,-0.027353,86.412,0.10698,supercritical,O2,C7782447,oxygen,154.58,50.43,13.6,0.07352941176470588,1.2,12.145944874082886,0.0004692136
185.5,613.88,28999.0,3.4484e-05,-0.6408,1.4761,123.54,25.914,46.98,751.18,-0.027424,86.524,0.1071,supercritical,O2,C7782447,oxygen,154.58,50.43,13.6,0.07352941176470588,1.2,12.172912948641681,0.0004689823999999999
185.5,615.25,29012.0,3.4468e-05,-0.64275,1.4779,123.53,25.918,46.965,751.89,-0.027494,86.637,0.10721,supercritical,O2,C7782447,oxygen,154.58,50.43,13.6,0.07352941176470588,1.2,12.200079317866349,0.00046876480000000004
185.5,616.62,29026.0,3.4452e-05,-0.64469,1.4797,123.51,25.921,46.951,752.6,-0.027564,86.75,0.10732,supercritical,O2,C7782447,oxygen,154.58,50.43,13.6,0.07352941176470588,1.2,12.227245687091017,0.0004685472
185.5,617.98,29040.0,3.4436e-05,-0.64662,1.4814,123.49,25.925,46.936,753.31,-0.027634,86.862,0.10743,supercritical,O2,C7782447,oxygen,154.58,50.43,13.6,0.07352941176470588,1.2,12.254213761649812,0.0004683296
185.5,619.35,29053.0,3.442e-05,-0.64855,1.4832,123.48,25.929,46.921,754.02,-0.027703,86.974,0.10754,supercritical,O2,C7782447,oxygen,154.58,50.43,13.6,0.07352941176470588,1.2,12.28138013087448,0.00046811199999999997
185.5,620.71,29067.0,3.4404e-05,-0.65048,1.485,123.46,25.933,46.906,754.73,-0.027772,87.087,0.10765,supercritical,O2,C7782447,oxygen,154.58,50.43,13.6,0.07352941176470588,1.2,12.308348205433274,0.0004678944
185.5,622.08,29080.0,3.4388e-05,-0.6524,1.4868,123.45,25.937,46.892,755.43,-0.027841,87.199,0.10776,supercritical,O2,C7782447,oxygen,154.58,50.43,13.6,0.07352941176470588,1.2,12.335514574657942,0.00046767679999999993
185.5,623.44,29094.0,3.4372e-05,-0.65432,1.4885,123.43,25.941,46.877,756.14,-0.027909,87.311,0.10787,supercritical,O2,C7782447,oxygen,154.58,50.43,13.6,0.07352941176470588,1.2,12.362482649216737,0.0004674592
185.5,624.8,29107.0,3.4356e-05,-0.65623,1.4903,123.42,25.944,46.863,756.84,-0.027977,87.423,0.10798,supercritical,O2,C7782447,oxygen,154.58,50.43,13.6,0.07352941176470588,1.2,12.38945072377553,0.0004672416
185.5,626.17,29121.0,3.434e-05,-0.65813,1.4921,123.4,25.948,46.849,757.54,-0.028044,87.535,0.10809,supercritical,O2,C7782447,oxygen,154.58,50.43,13.6,0.07352941176470588,1.2,12.416617093000198,0.00046702399999999997
185.5,627.53,29134.0,3.4324e-05,-0.66003,1.4939,123.38,25.952,46.834,758.24,-0.028112,87.647,0.1082,supercritical,O2,C7782447,oxygen,154.58,50.43,13.6,0.07352941176470588,1.2,12.443585167558993,0.0004668064
185.5,628.9,29147.0,3.4308e-05,-0.66193,1.4957,123.37,25.956,46.82,758.94,-0.028178,87.759,0.10831,supercritical,O2,C7782447,oxygen,154.58,50.43,13.6,0.07352941176470588,1.2,12.470751536783661,0.00046658879999999993
185.5,630.26,29161.0,3.4293e-05,-0.66382,1.4975,123.35,25.959,46.806,759.64,-0.028245,87.871,0.10842,supercritical,O2,C7782447,oxygen,154.58,50.43,13.6,0.07352941176470588,1.2,12.497719611342454,0.0004663848
185.5,631.63,29174.0,3.4277e-05,-0.6657,1.4993,123.34,25.963,46.792,760.34,-0.028311,87.983,0.10853,supercritical,O2,C7782447,oxygen,154.58,50.43,13.6,0.07352941176470588,1.2,12.524885980567122,0.00046616719999999993
185.5,633.0,29187.0,3.4261e-05,-0.66759,1.5011,123.32,25.967,46.778,761.04,-0.028377,88.095,0.10864,supercritical,O2,C7782447,oxygen,154.58,50.43,13.6,0.07352941176470588,1.2,12.55205234979179,0.00046594960000000005
185.5,634.36,29201.0,3.4246e-05,-0.66946,1.503,123.31,25.971,46.764,761.73,-0.028443,88.206,0.10875,supercritical,O2,C7782447,oxygen,154.58,50.43,13.6,0.07352941176470588,1.2,12.579020424350585,0.00046574559999999993
185.5,635.73,29214.0,3.423e-05,-0.67133,1.5048,123.29,25.975,46.75,762.43,-0.028508,88.318,0.10886,supercritical,O2,C7782447,oxygen,154.58,50.43,13.6,0.07352941176470588,1.2,12.606186793575253,0.00046552800000000005
185.5,637.09,29227.0,3.4215e-05,-0.6732,1.5066,123.28,25.978,46.736,763.12,-0.028573,88.43,0.10897,supercritical,O2,C7782447,oxygen,154.58,50.43,13.6,0.07352941176470588,1.2,12.633154868134048,0.0004653239999999999
185.5,638.46,29240.0,3.4199e-05,-0.67506,1.5084,123.26,25.982,46.722,763.81,-0.028637,88.541,0.10908,supercritical,O2,C7782447,oxygen,154.58,50.43,13.6,0.07352941176470588,1.2,12.660321237358716,0.00046510640000000004
185.5,639.82,29253.0,3.4184e-05,-0.67692,1.5102,123.25,25.986,46.709,764.5,-0.028702,88.653,0.10919,supercritical,O2,C7782447,oxygen,154.58,50.43,13.6,0.07352941176470588,1.2,12.68728931191751,0.0004649023999999999
185.5,641.18,29266.0,3.4169e-05,-0.67877,1.5121,123.23,25.989,46.695,765.19,-0.028766,88.764,0.1093,supercritical,O2,C7782447,oxygen,154.58,50.43,13.6,0.07352941176470588,1.2,12.714257386476303,0.00046469839999999996
185.5,642.55,29280.0,3.4154e-05,-0.68062,1.5139,123.22,25.993,46.681,765.88,-0.028829,88.875,0.10941,supercritical,O2,C7782447,oxygen,154.58,50.43,13.6,0.07352941176470588,1.2,12.741423755700971,0.00046449439999999995
185.5,643.91,29293.0,3.4138e-05,-0.68247,1.5158,123.2,25.997,46.668,766.57,-0.028893,88.986,0.10952,supercritical,O2,C7782447,oxygen,154.58,50.43,13.6,0.07352941176470588,1.2,12.768391830259766,0.00046427679999999996