Temperature (K),Pressure (bar),Density (mol/m3),Volume (m3/mol),Internal Energy (kJ/mol),Enthalpy (kJ/mol),Entropy (J/mol*K),Cv (J/mol*K),Cp (J/mol*K),Sound Spd. (m/s),Joule-Thomson (K/bar),Viscosity (uPa*s),Therm. Cond. (W/m*K),Phase,substance,substance_id,substance_name,Tc,Pc,rhoc,Vmc,Tr,Pr,Vmr
309.16,263.08,10424.0,9.5935e-05,4.9214,7.4453,155.54,22.514,40.291,400.1,0.091831,30.192,0.042427,supercritical,O2,C7782447,oxygen,154.58,50.43,13.6,0.07352941176470588,2.0,5.2167360697997225,0.0013047159999999998
309.16,264.44,10471.0,9.5499e-05,4.9148,7.4402,155.49,22.519,40.32,400.72,0.09114,30.258,0.042525,supercritical,O2,C7782447,oxygen,154.58,50.43,13.6,0.07352941176470588,2.0,5.243704144358516,0.0012987864
309.16,265.81,10519.0,9.5068e-05,4.9082,7.4352,155.43,22.523,40.347,401.34,0.090453,30.325,0.042623,supercritical,O2,C7782447,oxygen,154.58,50.43,13.6,0.07352941176470588,2.0,5.270870513583184,0.0012929248
309.16,267.18,10566.0,9.4641e-05,4.9017,7.4303,155.37,22.528,40.374,401.97,0.089769,30.391,0.042722,supercritical,O2,C7782447,oxygen,154.58,50.43,13.6,0.07352941176470588,2.0,5.298036882807852,0.0012871176
309.16,268.54,10613.0,9.422e-05,4.8952,7.4253,155.31,22.532,40.401,402.59,0.089088,30.457,0.04282,supercritical,O2,C7782447,oxygen,154.58,50.43,13.6,0.07352941176470588,2.0,5.325004957366647,0.001281392
309.16,269.9,10661.0,9.3803e-05,4.8886,7.4204,155.25,22.536,40.428,403.22,0.08841,30.523,0.042918,supercritical,O2,C7782447,oxygen,154.58,50.43,13.6,0.07352941176470588,2.0,5.351973031925441,0.0012757208
309.16,271.27,10708.0,9.3392e-05,4.8821,7.4156,155.2,22.541,40.454,403.85,0.087735,30.589,0.043017,supercritical,O2,C7782447,oxygen,154.58,50.43,13.6,0.07352941176470588,2.0,5.379139401150109,0.0012701312
309.16,272.63,10754.0,9.2985e-05,4.8757,7.4108,155.14,22.545,40.48,404.48,0.087064,30.656,0.043115,supercritical,O2,C7782447,oxygen,154.58,50.43,13.6,0.07352941176470588,2.0,5.406107475708903,0.001264596
309.16,274.0,10801.0,9.2582e-05,4.8692,7.406,155.08,22.549,40.506,405.11,0.086396,30.722,0.043213,supercritical,O2,C7782447,oxygen,154.58,50.43,13.6,0.07352941176470588,2.0,5.433273844933571,0.0012591152
309.16,275.37,10848.0,9.2184e-05,4.8628,7.4012,155.03,22.554,40.531,405.75,0.085731,30.789,0.043312,supercritical,O2,C7782447,oxygen,154.58,50.43,13.6,0.07352941176470588,2.0,5.460440214158239,0.0012537024
309.16,276.73,10894.0,9.1791e-05,4.8563,7.3965,154.97,22.558,40.556,406.38,0.085069,30.855,0.04341,supercritical,O2,C7782447,oxygen,154.58,50.43,13.6,0.07352941176470588,2.0,5.487408288717034,0.0012483576
309.16,278.1,10941.0,9.1402e-05,4.8499,7.3918,154.92,22.562,40.58,407.02,0.084411,30.922,0.043509,supercritical,O2,C7782447,oxygen,154.58,50.43,13.6,0.07352941176470588,2.0,5.514574657941702,0.0012430672000000001
309.16,279.46,10987.0,9.1017e-05,4.8436,7.3871,154.86,22.567,40.605,407.66,0.083756,30.989,0.043607,supercritical,O2,C7782447,oxygen,154.58,50.43,13.6,0.07352941176470588,2.0,5.541542732500496,0.0012378311999999999
309.16,280.82,11033.0,9.0636e-05,4.8372,7.3825,154.81,22.571,40.629,408.3,0.083104,31.055,0.043706,supercritical,O2,C7782447,oxygen,154.58,50.43,13.6,0.07352941176470588,2.0,5.56851080705929,0.0012326496
309.16,282.19,11079.0,9.026e-05,4.8309,7.3779,154.75,22.575,40.652,408.94,0.082455,31.122,0.043804,supercritical,O2,C7782447,oxygen,154.58,50.43,13.6,0.07352941176470588,2.0,5.595677176283958,0.001227536
309.16,283.56,11125.0,8.9888e-05,4.8245,7.3733,154.7,22.579,40.675,409.59,0.08181,31.189,0.043903,supercritical,O2,C7782447,oxygen,154.58,50.43,13.6,0.07352941176470588,2.0,5.622843545508626,0.0012224768
309.16,284.92,11171.0,8.952e-05,4.8182,7.3688,154.64,22.583,40.698,410.23,0.081168,31.256,0.044001,supercritical,O2,C7782447,oxygen,154.58,50.43,13.6,0.07352941176470588,2.0,5.64981162006742,0.0012174719999999998
309.16,286.29,11216.0,8.9156e-05,4.8119,7.3643,154.59,22.588,40.721,410.88,0.080529,31.323,0.0441,supercritical,O2,C7782447,oxygen,154.58,50.43,13.6,0.07352941176470588,2.0,5.676977989292088,0.0012125216
309.16,287.65,11262.0,8.8796e-05,4.8057,7.3599,154.53,22.592,40.743,411.53,0.079893,31.39,0.044199,supercritical,O2,C7782447,oxygen,154.58,50.43,13.6,0.07352941176470588,2.0,5.703946063850882,0.0012076256
309.16,289.01,11307.0,8.8439e-05,4.7994,7.3554,154.48,22.596,40.765,412.18,0.07926,31.457,0.044297,supercritical,O2,C7782447,oxygen,154.58,50.43,13.6,0.07352941176470588,2.0,5.730914138409677,0.0012027703999999998
309.16,290.38,11352.0,8.8087e-05,4.7932,7.351,154.43,22.6,40.787,412.83,0.078631,31.524,0.044396,supercritical,O2,C7782447,oxygen,154.58,50.43,13.6,0.07352941176470588,2.0,5.758080507634345,0.0011979832
309.16,291.75,11398.0,8.7738e-05,4.787,7.3467,154.37,22.604,40.808,413.48,0.078005,31.591,0.044494,supercritical,O2,C7782447,oxygen,154.58,50.43,13.6,0.07352941176470588,2.0,5.785246876859013,0.0011932368000000001
309.16,293.11,11443.0,8.7393e-05,4.7808,7.3424,154.32,22.608,40.829,414.13,0.077382,31.658,0.044593,supercritical,O2,C7782447,oxygen,154.58,50.43,13.6,0.07352941176470588,2.0,5.812214951417807,0.0011885448
309.16,294.48,11487.0,8.7052e-05,4.7746,7.3381,154.27,22.612,40.85,414.79,0.076762,31.725,0.044691,supercritical,O2,C7782447,oxygen,154.58,50.43,13.6,0.07352941176470588,2.0,5.839381320642475,0.0011839072
309.16,295.84,11532.0,8.6715e-05,4.7684,7.3338,154.22,22.616,40.87,415.44,0.076145,31.792,0.04479,supercritical,O2,C7782447,oxygen,154.58,50.43,13.6,0.07352941176470588,2.0,5.866349395201269,0.001179324
309.16,297.2,11577.0,8.638e-05,4.7623,7.3296,154.17,22.62,40.89,416.1,0.075532,31.859,0.044888,supercritical,O2,C7782447,oxygen,154.58,50.43,13.6,0.07352941176470588,2.0,5.893317469760063,0.0011747679999999999
309.16,298.57,11621.0,8.605e-05,4.7562,7.3254,154.11,22.624,40.91,416.76,0.074922,31.926,0.044987,supercritical,O2,C7782447,oxygen,154.58,50.43,13.6,0.07352941176470588,2.0,5.920483838984731,0.00117028
309.16,299.94,11666.0,8.5723e-05,4.7501,7.3212,154.06,22.628,40.929,417.42,0.074315,31.993,0.045085,supercritical,O2,C7782447,oxygen,154.58,50.43,13.6,0.07352941176470588,2.0,5.947650208209399,0.0011658328
309.16,301.3,11710.0,8.5399e-05,4.744,7.3171,154.01,22.632,40.949,418.08,0.073711,32.06,0.045184,supercritical,O2,C7782447,oxygen,154.58,50.43,13.6,0.07352941176470588,2.0,5.974618282768194,0.0011614264
309.16,302.67,11754.0,8.5079e-05,4.7379,7.313,153.96,22.636,40.967,418.75,0.07311,32.128,0.045282,supercritical,O2,C7782447,oxygen,154.58,50.43,13.6,0.07352941176470588,2.0,6.001784651992862,0.0011570744
309.16,304.03,11798.0,8.4762e-05,4.7319,7.3089,153.91,22.64,40.986,419.41,0.072513,32.195,0.045381,supercritical,O2,C7782447,oxygen,154.58,50.43,13.6,0.07352941176470588,2.0,6.028752726551655,0.0011527631999999999
309.16,305.39,11842.0,8.4448e-05,4.7258,7.3048,153.86,22.644,41.004,420.07,0.071918,32.262,0.045479,supercritical,O2,C7782447,oxygen,154.58,50.43,13.6,0.07352941176470588,2.0,6.05572080111045,0.0011484928
309.16,306.76,11885.0,8.4137e-05,4.7198,7.3008,153.81,22.648,41.022,420.74,0.071327,32.329,0.045578,supercritical,O2,C7782447,oxygen,154.58,50.43,13.6,0.07352941176470588,2.0,6.082887170335118,0.0011442632
309.16,308.12,11929.0,8.383e-05,4.7138,7.2969,153.76,22.652,41.04,421.41,0.070739,32.396,0.045676,supercritical,O2,C7782447,oxygen,154.58,50.43,13.6,0.07352941176470588,2.0,6.109855244893913,0.001140088
309.16,309.49,11972.0,8.3526e-05,4.7079,7.2929,153.71,22.656,41.057,422.08,0.070154,32.464,0.045774,supercritical,O2,C7782447,oxygen,154.58,50.43,13.6,0.07352941176470588,2.0,6.137021614118581,0.0011359535999999999
309.16,310.86,12016.0,8.3224e-05,4.7019,7.289,153.66,22.659,41.075,422.75,0.069572,32.531,0.045872,supercritical,O2,C7782447,oxygen,154.58,50.43,13.6,0.07352941176470588,2.0,6.164187983343249,0.0011318464
309.16,312.22,12059.0,8.2926e-05,4.696,7.2851,153.61,22.663,41.091,423.42,0.068993,32.598,0.045971,supercritical,O2,C7782447,oxygen,154.58,50.43,13.6,0.07352941176470588,2.0,6.191156057902043,0.0011277936
309.16,313.58,12102.0,8.2631e-05,4.6901,7.2813,153.56,22.667,41.108,424.09,0.068417,32.665,0.046069,supercritical,O2,C7782447,oxygen,154.58,50.43,13.6,0.07352941176470588,2.0,6.2181241324608365,0.0011237816
309.16,314.95,12145.0,8.2339e-05,4.6842,7.2774,153.51,22.671,41.124,424.76,0.067845,32.733,0.046167,supercritical,O2,C7782447,oxygen,154.58,50.43,13.6,0.07352941176470588,2.0,6.2452905016855045,0.0011198103999999999
309.16,316.31,12188.0,8.2049e-05,4.6783,7.2736,153.46,22.675,41.14,425.44,0.067275,32.8,0.046265,supercritical,O2,C7782447,oxygen,154.58,50.43,13.6,0.07352941176470588,2.0,6.272258576244299,0.0011158664
309.16,317.68,12230.0,8.1763e-05,4.6724,7.2699,153.42,22.679,41.156,426.11,0.066709,32.867,0.046363,supercritical,O2,C7782447,oxygen,154.58,50.43,13.6,0.07352941176470588,2.0,6.299424945468967,0.0011119767999999998
309.16,319.05,12273.0,8.1479e-05,4.6666,7.2661,153.37,22.682,41.172,426.79,0.066145,32.934,0.046461,supercritical,O2,C7782447,oxygen,154.58,50.43,13.6,0.07352941176470588,2.0,6.326591314693635,0.0011081144
309.16,320.41,12315.0,8.1199e-05,4.6608,7.2624,153.32,22.686,41.187,427.46,0.065585,33.002,0.046559,supercritical,O2,C7782447,oxygen,154.58,50.43,13.6,0.07352941176470588,2.0,6.35355938925243,0.0011043064000000001
309.16,321.77,12358.0,8.0921e-05,4.6549,7.2588,153.27,22.69,41.202,428.14,0.065027,33.069,0.046657,supercritical,O2,C7782447,oxygen,154.58,50.43,13.6,0.07352941176470588,2.0,6.380527463811223,0.0011005256
309.16,323.14,12400.0,8.0645e-05,4.6492,7.2551,153.22,22.694,41.217,428.82,0.064473,33.136,0.046755,supercritical,O2,C7782447,oxygen,154.58,50.43,13.6,0.07352941176470588,2.0,6.407693833035891,0.001096772
309.16,324.5,12442.0,8.0372e-05,4.6434,7.2515,153.18,22.697,41.231,429.5,0.063922,33.203,0.046853,supercritical,O2,C7782447,oxygen,154.58,50.43,13.6,0.07352941176470588,2.0,6.434661907594686,0.0010930591999999998
309.16,325.87,12484.0,8.0102e-05,4.6376,7.2479,153.13,22.701,41.245,430.18,0.063374,33.27,0.04695,supercritical,O2,C7782447,oxygen,154.58,50.43,13.6,0.07352941176470588,2.0,6.461828276819354,0.0010893871999999999
309.16,327.24,12526.0,7.9835e-05,4.6319,7.2444,153.08,22.705,41.259,430.86,0.062828,33.337,0.047048,supercritical,O2,C7782447,oxygen,154.58,50.43,13.6,0.07352941176470588,2.0,6.488994646044022,0.001085756
309.16,328.6,12568.0,7.957e-05,4.6262,7.2409,153.04,22.708,41.273,431.54,0.062286,33.405,0.047146,supercritical,O2,C7782447,oxygen,154.58,50.43,13.6,0.07352941176470588,2.0,6.515962720602817,0.0010821519999999999
309.16,329.96,12609.0,7.9308e-05,4.6205,7.2374,152.99,22.712,41.287,432.23,0.061747,33.472,0.047243,supercritical,O2,C7782447,oxygen,154.58,50.43,13.6,0.07352941176470588,2.0,6.54293079516161,0.0010785888
309.16,331.33,12651.0,7.9048e-05,4.6148,7.2339,152.94,22.716,41.3,432.91,0.06121,33.539,0.047341,supercritical,O2,C7782447,oxygen,154.58,50.43,13.6,0.07352941176470588,2.0,6.5700971643862776,0.0010750528
309.16,332.69,12692.0,7.8791e-05,4.6091,7.2305,152.9,22.719,41.313,433.6,0.060677,33.606,0.047438,supercritical,O2,C7782447,oxygen,154.58,50.43,13.6,0.07352941176470588,2.0,6.597065238945072,0.0010715575999999999
309.16,334.06,12733.0,7.8536e-05,4.6035,7.227,152.85,22.723,41.326,434.28,0.060146,33.673,0.047536,supercritical,O2,C7782447,oxygen,154.58,50.43,13.6,0.07352941176470588,2.0,6.62423160816974,0.0010680896
309.16,335.43,12774.0,7.8283e-05,4.5979,7.2237,152.81,22.727,41.338,434.97,0.059619,33.74,0.047633,supercritical,O2,C7782447,oxygen,154.58,50.43,13.6,0.07352941176470588,2.0,6.651397977394408,0.0010646488
309.16,336.79,12815.0,7.8033e-05,4.5922,7.2203,152.76,22.73,41.35,435.66,0.059094,33.807,0.04773,supercritical,O2,C7782447,oxygen,154.58,50.43,13.6,0.07352941176470588,2.0,6.678366051953203,0.0010612488
309.16,338.15,12856.0,7.7785e-05,4.5867,7.217,152.72,22.734,41.362,436.34,0.058572,33.874,0.047827,supercritical,O2,C7782447,oxygen,154.58,50.43,13.6,0.07352941176470588,2.0,6.705334126511996,0.001057876
309.16,339.52,12897.0,7.754e-05,4.5811,7.2137,152.67,22.737,41.374,437.03,0.058053,33.941,0.047924,supercritical,O2,C7782447,oxygen,154.58,50.43,13.6,0.07352941176470588,2.0,6.732500495736664,0.0010545440000000001
309.16,340.88,12937.0,7.7297e-05,4.5755,7.2104,152.63,22.741,41.386,437.72,0.057537,34.008,0.048021,supercritical,O2,C7782447,oxygen,154.58,50.43,13.6,0.07352941176470588,2.0,6.759468570295459,0.0010512391999999999
309.16,342.25,12978.0,7.7056e-05,4.57,7.2072,152.58,22.744,41.397,438.41,0.057024,34.075,0.048118,supercritical,O2,C7782447,oxygen,154.58,50.43,13.6,0.07352941176470588,2.0,6.786634939520127,0.0010479616
309.16,343.62,13018.0,7.6817e-05,4.5645,7.204,152.54,22.748,41.408,439.1,0.056514,34.142,0.048215,supercritical,O2,C7782447,oxygen,154.58,50.43,13.6,0.07352941176470588,2.0,6.813801308744795,0.0010447112
309.16,344.98,13058.0,7.658e-05,4.559,7.2008,152.49,22.752,41.419,439.79,0.056007,34.209,0.048312,supercritical,O2,C7782447,oxygen,154.58,50.43,13.6,0.07352941176470588,2.0,6.84076938330359,0.001041488
309.16,346.35,13098.0,7.6346e-05,4.5535,7.1977,152.45,22.755,41.43,440.49,0.055502,34.276,0.048409,supercritical,O2,C7782447,oxygen,154.58,50.43,13.6,0.07352941176470588,2.0,6.867935752528258,0.0010383056
309.16,347.71,13138.0,7.6114e-05,4.548,7.1945,152.41,22.759,41.44,441.18,0.055001,34.343,0.048505,supercritical,O2,C7782447,oxygen,154.58,50.43,13.6,0.07352941176470588,2.0,6.894903827087051,0.0010351504
309.16,349.07,13178.0,7.5883e-05,4.5425,7.1914,152.36,22.762,41.451,441.87,0.054502,34.409,0.048602,supercritical,O2,C7782447,oxygen,154.58,50.43,13.6,0.07352941176470588,2.0,6.921871901645845,0.0010320088000000001
309.16,350.44,13218.0,7.5655e-05,4.5371,7.1884,152.32,22.766,41.461,442.57,0.054005,34.476,0.048698,supercritical,O2,C7782447,oxygen,154.58,50.43,13.6,0.07352941176470588,2.0,6.949038270870513,0.001028908
309.16,351.81,13257.0,7.5429e-05,4.5317,7.1853,152.28,22.769,41.471,443.26,0.053512,34.543,0.048795,supercritical,O2,C7782447,oxygen,154.58,50.43,13.6,0.07352941176470588,2.0,6.976204640095181,0.0010258344
309.16,353.17,13297.0,7.5205e-05,4.5263,7.1823,152.23,22.772,41.48,443.96,0.053022,34.609,0.048891,supercritical,O2,C7782447,oxygen,154.58,50.43,13.6,0.07352941176470588,2.0,7.003172714653976,0.001022788
309.16,354.54,13336.0,7.4983e-05,4.5209,7.1793,152.19,22.776,41.49,444.65,0.052534,34.676,0.048987,supercritical,O2,C7782447,oxygen,154.58,50.43,13.6,0.07352941176470588,2.0,7.030339083878644,0.0010197688
309.16,355.9,13376.0,7.4763e-05,4.5155,7.1764,152.15,22.779,41.499,445.35,0.052049,34.743,0.049083,supercritical,O2,C7782447,oxygen,154.58,50.43,13.6,0.07352941176470588,2.0,7.057307158437438,0.0010167767999999999
309.16,357.26,13415.0,7.4545e-05,4.5102,7.1734,152.11,22.783,41.508,446.05,0.051566,34.809,0.049179,supercritical,O2,C7782447,oxygen,154.58,50.43,13.6,0.07352941176470588,2.0,7.084275232996232,0.001013812
309.16,358.63,13454.0,7.4329e-05,4.5048,7.1705,152.06,22.786,41.517,446.74,0.051087,34.876,0.049275,supercritical,O2,C7782447,oxygen,154.58,50.43,13.6,0.07352941176470588,2.0,7.1114416022209,0.0010108743999999999
309.16,360.0,13493.0,7.4115e-05,4.4995,7.1676,152.02,22.79,41.526,447.44,0.05061,34.942,0.049371,supercritical,O2,C7782447,oxygen,154.58,50.43,13.6,0.07352941176470588,2.0,7.138607971445568,0.001007964
309.16,361.36,13531.0,7.3903e-05,4.4942,7.1648,151.98,22.793,41.534,448.14,0.050136,35.009,0.049467,supercritical,O2,C7782447,oxygen,154.58,50.43,13.6,0.07352941176470588,2.0,7.165576046004363,0.0010050808
309.16,362.73,13570.0,7.3692e-05,4.4889,7.162,151.94,22.796,41.542,448.84,0.049664,35.075,0.049563,supercritical,O2,C7782447,oxygen,154.58,50.43,13.6,0.07352941176470588,2.0,7.192742415229031,0.0010022111999999999
309.16,364.09,13608.0,7.3484e-05,4.4837,7.1591,151.9,22.8,41.55,449.54,0.049195,35.142,0.049659,supercritical,O2,C7782447,oxygen,154.58,50.43,13.6,0.07352941176470588,2.0,7.219710489787825,0.0009993824
309.16,365.45,13647.0,7.3277e-05,4.4784,7.1564,151.85,22.803,41.558,450.24,0.048729,35.208,0.049754,supercritical,O2,C7782447,oxygen,154.58,50.43,13.6,0.07352941176470588,2.0,7.2466785643466185,0.0009965672
309.16,366.82,13685.0,7.3072e-05,4.4732,7.1536,151.81,22.806,41.566,450.94,0.048266,35.274,0.04985,supercritical,O2,C7782447,oxygen,154.58,50.43,13.6,0.07352941176470588,2.0,7.2738449335712865,0.0009937791999999998
309.16,368.19,13723.0,7.2869e-05,4.468,7.1509,151.77,22.81,41.573,451.64,0.047805,35.341,0.049945,supercritical,O2,C7782447,oxygen,154.58,50.43,13.6,0.07352941176470588,2.0,7.3010113027959544,0.0009910184
309.16,369.55,13761.0,7.2667e-05,4.4628,7.1482,151.73,22.813,41.581,452.34,0.047346,35.407,0.05004,supercritical,O2,C7782447,oxygen,154.58,50.43,13.6,0.07352941176470588,2.0,7.327979377354749,0.0009882712
309.16,370.92,13799.0,7.2467e-05,4.4576,7.1455,151.69,22.816,41.588,453.04,0.046891,35.473,0.050135,supercritical,O2,C7782447,oxygen,154.58,50.43,13.6,0.07352941176470588,2.0,7.355145746579417,0.0009855512
309.16,372.28,13837.0,7.2269e-05,4.4524,7.1429,151.65,22.82,41.595,453.74,0.046437,35.539,0.05023,supercritical,O2,C7782447,oxygen,154.58,50.43,13.6,0.07352941176470588,2.0,7.382113821138211,0.0009828584
309.16,373.64,13875.0,7.2073e-05,4.4473,7.1402,151.61,22.823,41.602,454.44,0.045987,35.605,0.050325,supercritical,O2,C7782447,oxygen,154.58,50.43,13.6,0.07352941176470588,2.0,7.409081895697006,0.0009801928
309.16,375.01,13912.0,7.1878e-05,4.4422,7.1376,151.57,22.826,41.608,455.15,0.045539,35.671,0.05042,supercritical,O2,C7782447,oxygen,154.58,50.43,13.6,0.07352941176470588,2.0,7.436248264921674,0.0009775408
309.16,376.38,13950.0,7.1685e-05,4.437,7.1351,151.53,22.83,41.615,455.85,0.045094,35.737,0.050515,supercritical,O2,C7782447,oxygen,154.58,50.43,13.6,0.07352941176470588,2.0,7.463414634146341,0.000974916
309.16,377.74,13987.0,7.1493e-05,4.4319,7.1325,151.49,22.833,41.621,456.55,0.044651,35.803,0.05061,supercritical,O2,C7782447,oxygen,154.58,50.43,13.6,0.07352941176470588,2.0,7.490382708705136,0.0009723048
309.16,379.11,14025.0,7.1303e-05,4.4268,7.13,151.45,22.836,41.627,457.26,0.04421,35.869,0.050704,supercritical,O2,C7782447,oxygen,154.58,50.43,13.6,0.07352941176470588,2.0,7.517549077929804,0.0009697208
309.16,380.47,14062.0,7.1115e-05,4.4218,7.1275,151.41,22.839,41.633,457.96,0.043772,35.935,0.050799,supercritical,O2,C7782447,oxygen,154.58,50.43,13.6,0.07352941176470588,2.0,7.5445171524885986,0.000967164
309.16,381.83,14099.0,7.0928e-05,4.4167,7.125,151.37,22.843,41.639,458.66,0.043337,36.001,0.050893,supercritical,O2,C7782447,oxygen,154.58,50.43,13.6,0.07352941176470588,2.0,7.5714852270473925,0.0009646208
309.16,383.2,14136.0,7.0743e-05,4.4117,7.1226,151.33,22.846,41.645,459.37,0.042904,36.067,0.050988,supercritical,O2,C7782447,oxygen,154.58,50.43,13.6,0.07352941176470588,2.0,7.59865159627206,0.0009621047999999999
309.16,384.56,14172.0,7.056e-05,4.4067,7.1201,151.29,22.849,41.65,460.07,0.042474,36.132,0.051082,supercritical,O2,C7782447,oxygen,154.58,50.43,13.6,0.07352941176470588,2.0,7.625619670830854,0.000959616
309.16,385.93,14209.0,7.0377e-05,4.4017,7.1177,151.25,22.852,41.655,460.78,0.042046,36.198,0.051176,supercritical,O2,C7782447,oxygen,154.58,50.43,13.6,0.07352941176470588,2.0,7.652786040055522,0.0009571271999999999
309.16,387.3,14246.0,7.0197e-05,4.3967,7.1154,151.22,22.856,41.661,461.48,0.04162,36.264,0.05127,supercritical,O2,C7782447,oxygen,154.58,50.43,13.6,0.07352941176470588,2.0,7.67995240928019,0.0009546792
309.16,388.66,14282.0,7.0018e-05,4.3917,7.113,151.18,22.859,41.666,462.19,0.041197,36.329,0.051364,supercritical,O2,C7782447,oxygen,154.58,50.43,13.6,0.07352941176470588,2.0,7.706920483838985,0.0009522448
309.16,390.02,14318.0,6.984e-05,4.3867,7.1107,151.14,22.862,41.67,462.9,0.040776,36.395,0.051458,supercritical,O2,C7782447,oxygen,154.58,50.43,13.6,0.07352941176470588,2.0,7.733888558397779,0.0009498239999999999
309.16,391.39,14355.0,6.9664e-05,4.3818,7.1084,151.1,22.865,41.675,463.6,0.040358,36.46,0.051552,supercritical,O2,C7782447,oxygen,154.58,50.43,13.6,0.07352941176470588,2.0,7.761054927622447,0.0009474304