Temperature (K),Pressure (bar),Density (mol/m3),Volume (m3/mol),Internal Energy (kJ/mol),Enthalpy (kJ/mol),Entropy (J/mol*K),Cv (J/mol*K),Cp (J/mol*K),Sound Spd. (m/s),Joule-Thomson (K/bar),Viscosity (uPa*s),Therm. Cond. (W/m*K),Phase,substance,substance_id,substance_name,Tc,Pc,rhoc,Vmc,Tr,Pr,Vmr
226.29,302.55,18275.0,5.4718e-05,0.13514,1.7906,92.081,15.169,42.047,445.26,0.059733,46.212,0.045027,supercritical,Ar,C7440371,argon,150.86,48.9805,13.41,0.07457121551081282,1.5,6.17694796908974,0.0007337683800000001
226.29,304.18,18332.0,5.4549e-05,0.12733,1.7866,92.024,15.173,41.99,446.65,0.058676,46.388,0.045183,supercritical,Ar,C7440371,argon,150.86,48.9805,13.41,0.07457121551081282,1.5,6.210226518716633,0.00073150209
226.29,305.81,18389.0,5.4381e-05,0.11957,1.7826,91.967,15.176,41.934,448.04,0.057633,46.565,0.045339,supercritical,Ar,C7440371,argon,150.86,48.9805,13.41,0.07457121551081282,1.5,6.2435050683435245,0.0007292492100000001
226.29,307.44,18445.0,5.4216e-05,0.11188,1.7787,91.911,15.18,41.877,449.42,0.056604,46.741,0.045494,supercritical,Ar,C7440371,argon,150.86,48.9805,13.41,0.07457121551081282,1.5,6.276783617970417,0.0007270365600000001
226.29,309.07,18500.0,5.4054e-05,0.10425,1.7749,91.855,15.183,41.821,450.8,0.055589,46.916,0.045649,supercritical,Ar,C7440371,argon,150.86,48.9805,13.41,0.07457121551081282,1.5,6.310062167597309,0.0007248641400000001
226.29,310.7,18555.0,5.3893e-05,0.096668,1.7711,91.8,15.187,41.765,452.18,0.054586,47.091,0.045803,supercritical,Ar,C7440371,argon,150.86,48.9805,13.41,0.07457121551081282,1.5,6.343340717224201,0.00072270513
226.29,312.33,18610.0,5.3735e-05,0.089149,1.7674,91.744,15.19,41.709,453.55,0.053596,47.266,0.045956,supercritical,Ar,C7440371,argon,150.86,48.9805,13.41,0.07457121551081282,1.5,6.376619266851094,0.0007205863500000001
226.29,313.96,18664.0,5.3579e-05,0.081686,1.7638,91.69,15.194,41.653,454.92,0.05262,47.44,0.046109,supercritical,Ar,C7440371,argon,150.86,48.9805,13.41,0.07457121551081282,1.5,6.409897816477986,0.0007184943900000001
226.29,315.59,18718.0,5.3425e-05,0.07428,1.7603,91.636,15.197,41.598,456.28,0.051655,47.614,0.046261,supercritical,Ar,C7440371,argon,150.86,48.9805,13.41,0.07457121551081282,1.5,6.443176366104878,0.0007164292500000001
226.29,317.22,18771.0,5.3272e-05,0.066929,1.7568,91.582,15.201,41.543,457.65,0.050703,47.788,0.046412,supercritical,Ar,C7440371,argon,150.86,48.9805,13.41,0.07457121551081282,1.5,6.476454915731772,0.0007143775200000001
226.29,318.85,18824.0,5.3122e-05,0.059633,1.7534,91.529,15.204,41.488,459.0,0.049764,47.961,0.046563,supercritical,Ar,C7440371,argon,150.86,48.9805,13.41,0.07457121551081282,1.5,6.509733465358663,0.00071236602
226.29,320.48,18877.0,5.2974e-05,0.05239,1.7501,91.476,15.208,41.434,460.35,0.048836,48.134,0.046713,supercritical,Ar,C7440371,argon,150.86,48.9805,13.41,0.07457121551081282,1.5,6.543012014985556,0.00071038134
226.29,322.11,18929.0,5.2828e-05,0.045201,1.7468,91.423,15.212,41.38,461.7,0.047919,48.307,0.046863,supercritical,Ar,C7440371,argon,150.86,48.9805,13.41,0.07457121551081282,1.5,6.5762905646124485,0.0007084234800000002
226.29,323.74,18981.0,5.2684e-05,0.038065,1.7436,91.371,15.215,41.326,463.05,0.047015,48.479,0.047012,supercritical,Ar,C7440371,argon,150.86,48.9805,13.41,0.07457121551081282,1.5,6.60956911423934,0.0007064924400000001
226.29,325.37,19033.0,5.2541e-05,0.030981,1.7405,91.319,15.219,41.272,464.39,0.046121,48.651,0.04716,supercritical,Ar,C7440371,argon,150.86,48.9805,13.41,0.07457121551081282,1.5,6.642847663866233,0.00070457481
226.29,327.0,19084.0,5.24e-05,0.023949,1.7374,91.268,15.223,41.219,465.73,0.045239,48.822,0.047308,supercritical,Ar,C7440371,argon,150.86,48.9805,13.41,0.07457121551081282,1.5,6.6761262134931245,0.0007026840000000001
226.29,328.63,19135.0,5.2261e-05,0.016967,1.7344,91.217,15.226,41.166,467.06,0.044368,48.994,0.047455,supercritical,Ar,C7440371,argon,150.86,48.9805,13.41,0.07457121551081282,1.5,6.709404763120017,0.0007008200100000001
226.29,330.26,19185.0,5.2124e-05,0.010035,1.7315,91.166,15.23,41.113,468.39,0.043508,49.164,0.047602,supercritical,Ar,C7440371,argon,150.86,48.9805,13.41,0.07457121551081282,1.5,6.74268331274691,0.00069898284
226.29,331.89,19235.0,5.1988e-05,0.0031529,1.7286,91.116,15.234,41.061,469.71,0.042658,49.335,0.047748,supercritical,Ar,C7440371,argon,150.86,48.9805,13.41,0.07457121551081282,1.5,6.775961862373801,0.00069715908
226.29,333.52,19285.0,5.1854e-05,-0.0036803,1.7258,91.066,15.237,41.009,471.03,0.041818,49.505,0.047894,supercritical,Ar,C7440371,argon,150.86,48.9805,13.41,0.07457121551081282,1.5,6.809240412000694,0.0006953621400000001
226.29,335.15,19334.0,5.1722e-05,-0.010465,1.723,91.017,15.241,40.957,472.35,0.040989,49.675,0.048039,supercritical,Ar,C7440371,argon,150.86,48.9805,13.41,0.07457121551081282,1.5,6.8425189616275865,0.0006935920200000001
226.29,336.78,19383.0,5.1592e-05,-0.017202,1.7203,90.967,15.245,40.905,473.66,0.04017,49.845,0.048184,supercritical,Ar,C7440371,argon,150.86,48.9805,13.41,0.07457121551081282,1.5,6.875797511254478,0.0006918487200000001
226.29,338.41,19432.0,5.1462e-05,-0.023892,1.7176,90.919,15.248,40.854,474.97,0.039361,50.014,0.048328,supercritical,Ar,C7440371,argon,150.86,48.9805,13.41,0.07457121551081282,1.5,6.909076060881372,0.0006901054200000002
226.29,340.04,19480.0,5.1335e-05,-0.030535,1.7151,90.87,15.252,40.803,476.28,0.038562,50.184,0.048471,supercritical,Ar,C7440371,argon,150.86,48.9805,13.41,0.07457121551081282,1.5,6.942354610508264,0.0006884023500000001
226.29,341.67,19528.0,5.1209e-05,-0.037133,1.7125,90.822,15.256,40.753,477.58,0.037772,50.352,0.048614,supercritical,Ar,C7440371,argon,150.86,48.9805,13.41,0.07457121551081282,1.5,6.975633160135156,0.0006867126900000001
226.29,343.3,19576.0,5.1084e-05,-0.043684,1.71,90.774,15.26,40.703,478.88,0.036991,50.521,0.048756,supercritical,Ar,C7440371,argon,150.86,48.9805,13.41,0.07457121551081282,1.5,7.008911709762049,0.0006850364400000001
226.29,344.93,19623.0,5.0961e-05,-0.050191,1.7076,90.727,15.264,40.653,480.17,0.03622,50.689,0.048898,supercritical,Ar,C7440371,argon,150.86,48.9805,13.41,0.07457121551081282,1.5,7.042190259388941,0.0006833870100000001
226.29,346.56,19670.0,5.0839e-05,-0.056654,1.7052,90.68,15.267,40.603,481.46,0.035458,50.857,0.04904,supercritical,Ar,C7440371,argon,150.86,48.9805,13.41,0.07457121551081282,1.5,7.075468809015833,0.00068175099
226.29,348.19,19716.0,5.0719e-05,-0.063072,1.7029,90.633,15.271,40.554,482.74,0.034706,51.025,0.049181,supercritical,Ar,C7440371,argon,150.86,48.9805,13.41,0.07457121551081282,1.5,7.1087473586427254,0.0006801417900000001
226.29,349.82,19763.0,5.06e-05,-0.069447,1.7006,90.586,15.275,40.505,484.02,0.033961,51.192,0.049321,supercritical,Ar,C7440371,argon,150.86,48.9805,13.41,0.07457121551081282,1.5,7.142025908269617,0.000678546
226.29,351.45,19809.0,5.0483e-05,-0.075779,1.6984,90.54,15.279,40.456,485.3,0.033226,51.359,0.049461,supercritical,Ar,C7440371,argon,150.86,48.9805,13.41,0.07457121551081282,1.5,7.17530445789651,0.00067697703
226.29,353.08,19855.0,5.0366e-05,-0.082069,1.6963,90.494,15.283,40.408,486.58,0.032499,51.526,0.049601,supercritical,Ar,C7440371,argon,150.86,48.9805,13.41,0.07457121551081282,1.5,7.208583007523402,0.00067540806
226.29,354.71,19900.0,5.0251e-05,-0.088317,1.6941,90.449,15.287,40.36,487.84,0.031781,51.693,0.04974,supercritical,Ar,C7440371,argon,150.86,48.9805,13.41,0.07457121551081282,1.5,7.241861557150294,0.00067386591
226.29,356.34,19945.0,5.0138e-05,-0.094524,1.6921,90.403,15.29,40.312,489.11,0.031071,51.859,0.049878,supercritical,Ar,C7440371,argon,150.86,48.9805,13.41,0.07457121551081282,1.5,7.275140106777187,0.0006723505800000001
226.29,357.97,19990.0,5.0025e-05,-0.10069,1.6901,90.358,15.294,40.265,490.37,0.030369,52.025,0.050016,supercritical,Ar,C7440371,argon,150.86,48.9805,13.41,0.07457121551081282,1.5,7.30841865640408,0.0006708352500000001
226.29,359.6,20034.0,4.9914e-05,-0.10681,1.6881,90.314,15.298,40.218,491.63,0.029675,52.191,0.050154,supercritical,Ar,C7440371,argon,150.86,48.9805,13.41,0.07457121551081282,1.5,7.341697206030972,0.00066934674
226.29,361.23,20079.0,4.9804e-05,-0.1129,1.6862,90.269,15.302,40.171,492.88,0.028989,52.356,0.050291,supercritical,Ar,C7440371,argon,150.86,48.9805,13.41,0.07457121551081282,1.5,7.374975755657864,0.00066787164
226.29,362.86,20123.0,4.9695e-05,-0.11895,1.6843,90.225,15.306,40.125,494.13,0.028311,52.522,0.050428,supercritical,Ar,C7440371,argon,150.86,48.9805,13.41,0.07457121551081282,1.5,7.408254305284757,0.0006664099500000001
226.29,364.49,20166.0,4.9588e-05,-0.12495,1.6825,90.181,15.31,40.079,495.38,0.027641,52.687,0.050564,supercritical,Ar,C7440371,argon,150.86,48.9805,13.41,0.07457121551081282,1.5,7.441532854911649,0.0006649750800000001
226.29,366.12,20210.0,4.9481e-05,-0.13092,1.6807,90.138,15.314,40.033,496.62,0.026978,52.852,0.0507,supercritical,Ar,C7440371,argon,150.86,48.9805,13.41,0.07457121551081282,1.5,7.474811404538541,0.0006635402100000001
226.29,367.75,20253.0,4.9376e-05,-0.13685,1.679,90.094,15.318,39.988,497.86,0.026322,53.016,0.050836,supercritical,Ar,C7440371,argon,150.86,48.9805,13.41,0.07457121551081282,1.5,7.508089954165433,0.0006621321600000001
226.29,369.38,20296.0,4.9272e-05,-0.14274,1.6773,90.051,15.322,39.943,499.1,0.025674,53.18,0.050971,supercritical,Ar,C7440371,argon,150.86,48.9805,13.41,0.07457121551081282,1.5,7.5413685037923255,0.0006607375200000001
226.29,371.01,20338.0,4.9169e-05,-0.1486,1.6756,90.009,15.326,39.898,500.33,0.025033,53.344,0.051105,supercritical,Ar,C7440371,argon,150.86,48.9805,13.41,0.07457121551081282,1.5,7.574647053419218,0.0006593562900000001
226.29,372.64,20380.0,4.9067e-05,-0.15442,1.674,89.966,15.33,39.853,501.56,0.024399,53.508,0.051239,supercritical,Ar,C7440371,argon,150.86,48.9805,13.41,0.07457121551081282,1.5,7.60792560304611,0.0006579884700000002
226.29,374.27,20423.0,4.8966e-05,-0.1602,1.6724,89.924,15.334,39.809,502.78,0.023772,53.672,0.051373,supercritical,Ar,C7440371,argon,150.86,48.9805,13.41,0.07457121551081282,1.5,7.641204152673002,0.00065663406
226.29,375.9,20464.0,4.8866e-05,-0.16594,1.6709,89.882,15.338,39.765,504.0,0.023152,53.835,0.051507,supercritical,Ar,C7440371,argon,150.86,48.9805,13.41,0.07457121551081282,1.5,7.674482702299895,0.0006552930600000001
226.29,377.53,20506.0,4.8767e-05,-0.17165,1.6694,89.84,15.342,39.722,505.21,0.022539,53.998,0.05164,supercritical,Ar,C7440371,argon,150.86,48.9805,13.41,0.07457121551081282,1.5,7.707761251926787,0.0006539654700000001
226.29,379.16,20547.0,4.8669e-05,-0.17733,1.668,89.799,15.346,39.678,506.43,0.021932,54.161,0.051772,supercritical,Ar,C7440371,argon,150.86,48.9805,13.41,0.07457121551081282,1.5,7.74103980155368,0.00065265129
226.29,380.79,20588.0,4.8572e-05,-0.18297,1.6666,89.758,15.35,39.635,507.64,0.021332,54.323,0.051904,supercritical,Ar,C7440371,argon,150.86,48.9805,13.41,0.07457121551081282,1.5,7.774318351180573,0.0006513505200000001
226.29,382.42,20629.0,4.8476e-05,-0.18857,1.6652,89.717,15.354,39.593,508.84,0.020738,54.486,0.052036,supercritical,Ar,C7440371,argon,150.86,48.9805,13.41,0.07457121551081282,1.5,7.807596900807464,0.0006500631600000001
226.29,384.05,20669.0,4.8381e-05,-0.19414,1.6639,89.676,15.358,39.55,510.04,0.020151,54.648,0.052168,supercritical,Ar,C7440371,argon,150.86,48.9805,13.41,0.07457121551081282,1.5,7.840875450434357,0.0006487892100000001
226.29,385.68,20710.0,4.8287e-05,-0.19968,1.6626,89.635,15.362,39.508,511.24,0.01957,54.81,0.052299,supercritical,Ar,C7440371,argon,150.86,48.9805,13.41,0.07457121551081282,1.5,7.8741540000612495,0.0006475286700000001
226.29,387.31,20750.0,4.8194e-05,-0.20519,1.6614,89.595,15.366,39.466,512.43,0.018995,54.971,0.052429,supercritical,Ar,C7440371,argon,150.86,48.9805,13.41,0.07457121551081282,1.5,7.907432549688141,0.0006462815400000001
226.29,388.94,20789.0,4.8101e-05,-0.21066,1.6602,89.555,15.37,39.425,513.63,0.018426,55.133,0.052559,supercritical,Ar,C7440371,argon,150.86,48.9805,13.41,0.07457121551081282,1.5,7.940711099315034,0.00064503441
226.29,390.57,20829.0,4.801e-05,-0.21609,1.659,89.515,15.374,39.384,514.81,0.017864,55.294,0.052689,supercritical,Ar,C7440371,argon,150.86,48.9805,13.41,0.07457121551081282,1.5,7.9739896489419255,0.0006438141000000001
226.29,392.2,20868.0,4.792e-05,-0.2215,1.6579,89.476,15.378,39.343,516.0,0.017307,55.454,0.052819,supercritical,Ar,C7440371,argon,150.86,48.9805,13.41,0.07457121551081282,1.5,8.007268198568818,0.0006426072000000001
226.29,393.83,20907.0,4.783e-05,-0.22687,1.6568,89.437,15.382,39.302,517.18,0.016756,55.615,0.052948,supercritical,Ar,C7440371,argon,150.86,48.9805,13.41,0.07457121551081282,1.5,8.04054674819571,0.0006414003000000001
226.29,395.46,20946.0,4.7741e-05,-0.23222,1.6558,89.398,15.387,39.262,518.35,0.016211,55.776,0.053077,supercritical,Ar,C7440371,argon,150.86,48.9805,13.41,0.07457121551081282,1.5,8.073825297822603,0.0006402068100000001
226.29,397.09,20985.0,4.7653e-05,-0.23753,1.6547,89.359,15.391,39.222,519.52,0.015671,55.936,0.053205,supercritical,Ar,C7440371,argon,150.86,48.9805,13.41,0.07457121551081282,1.5,8.107103847449494,0.00063902673
226.29,398.72,21023.0,4.7566e-05,-0.24281,1.6538,89.32,15.395,39.182,520.69,0.015137,56.096,0.053334,supercritical,Ar,C7440371,argon,150.86,48.9805,13.41,0.07457121551081282,1.5,8.140382397076388,0.00063786006
226.29,400.35,21062.0,4.748e-05,-0.24806,1.6528,89.282,15.399,39.143,521.86,0.014608,56.255,0.053461,supercritical,Ar,C7440371,argon,150.86,48.9805,13.41,0.07457121551081282,1.5,8.173660946703281,0.0006367068000000001
226.29,401.98,21099.0,4.7395e-05,-0.25328,1.6519,89.243,15.403,39.103,523.02,0.014085,56.415,0.053589,supercritical,Ar,C7440371,argon,150.86,48.9805,13.41,0.07457121551081282,1.5,8.206939496330172,0.0006355669500000001
226.29,403.61,21137.0,4.731e-05,-0.25846,1.651,89.205,15.407,39.064,524.18,0.013567,56.574,0.053716,supercritical,Ar,C7440371,argon,150.86,48.9805,13.41,0.07457121551081282,1.5,8.240218045957064,0.0006344271
226.29,405.24,21175.0,4.7226e-05,-0.26362,1.6502,89.168,15.411,39.026,525.34,0.013055,56.733,0.053843,supercritical,Ar,C7440371,argon,150.86,48.9805,13.41,0.07457121551081282,1.5,8.273496595583957,0.00063330066
226.29,406.87,21212.0,4.7143e-05,-0.26875,1.6493,89.13,15.415,38.987,526.49,0.012547,56.892,0.053969,supercritical,Ar,C7440371,argon,150.86,48.9805,13.41,0.07457121551081282,1.5,8.30677514521085,0.0006321876300000001
226.29,408.5,21249.0,4.706e-05,-0.27385,1.6486,89.093,15.42,38.949,527.64,0.012045,57.05,0.054095,supercritical,Ar,C7440371,argon,150.86,48.9805,13.41,0.07457121551081282,1.5,8.340053694837742,0.0006310746
226.29,410.13,21286.0,4.6979e-05,-0.27893,1.6478,89.055,15.424,38.911,528.78,0.011548,57.208,0.054221,supercritical,Ar,C7440371,argon,150.86,48.9805,13.41,0.07457121551081282,1.5,8.373332244464635,0.00062998839
226.29,411.76,21323.0,4.6898e-05,-0.28397,1.6471,89.018,15.428,38.874,529.92,0.011056,57.366,0.054346,supercritical,Ar,C7440371,argon,150.86,48.9805,13.41,0.07457121551081282,1.5,8.406610794091526,0.00062890218
226.29,413.39,21359.0,4.6818e-05,-0.28898,1.6464,88.982,15.432,38.836,531.06,0.010568,57.524,0.054471,supercritical,Ar,C7440371,argon,150.86,48.9805,13.41,0.07457121551081282,1.5,8.439889343718418,0.00062782938
226.29,415.02,21396.0,4.6738e-05,-0.29397,1.6458,88.945,15.436,38.799,532.2,0.010086,57.682,0.054596,supercritical,Ar,C7440371,argon,150.86,48.9805,13.41,0.07457121551081282,1.5,8.47316789334531,0.0006267565800000001
226.29,416.65,21432.0,4.666e-05,-0.29893,1.6451,88.909,15.44,38.763,533.33,0.0096078,57.839,0.054721,supercritical,Ar,C7440371,argon,150.86,48.9805,13.41,0.07457121551081282,1.5,8.506446442972203,0.0006257106
226.29,418.28,21468.0,4.6582e-05,-0.30386,1.6445,88.873,15.445,38.726,534.46,0.0091346,57.996,0.054845,supercritical,Ar,C7440371,argon,150.86,48.9805,13.41,0.07457121551081282,1.5,8.539724992599096,0.00062466462
226.29,419.91,21503.0,4.6504e-05,-0.30877,1.644,88.837,15.449,38.69,535.58,0.0086661,58.153,0.054969,supercritical,Ar,C7440371,argon,150.86,48.9805,13.41,0.07457121551081282,1.5,8.573003542225988,0.0006236186400000001
226.29,421.54,21539.0,4.6427e-05,-0.31365,1.6435,88.801,15.453,38.654,536.71,0.0082021,58.309,0.055092,supercritical,Ar,C7440371,argon,150.86,48.9805,13.41,0.07457121551081282,1.5,8.606282091852881,0.0006225860700000001
226.29,423.17,21574.0,4.6351e-05,-0.3185,1.643,88.765,15.457,38.618,537.83,0.0077427,58.466,0.055216,supercritical,Ar,C7440371,argon,150.86,48.9805,13.41,0.07457121551081282,1.5,8.639560641479774,0.00062156691
226.29,424.8,21609.0,4.6276e-05,-0.32332,1.6425,88.73,15.461,38.582,538.94,0.0072876,58.622,0.055339,supercritical,Ar,C7440371,argon,150.86,48.9805,13.41,0.07457121551081282,1.5,8.672839191106664,0.0006205611600000001
226.29,426.43,21644.0,4.6201e-05,-0.32812,1.642,88.694,15.466,38.547,540.05,0.0068369,58.778,0.055461,supercritical,Ar,C7440371,argon,150.86,48.9805,13.41,0.07457121551081282,1.5,8.706117740733557,0.00061955541
226.29,428.06,21679.0,4.6127e-05,-0.3329,1.6416,88.659,15.47,38.512,541.16,0.0063906,58.933,0.055584,supercritical,Ar,C7440371,argon,150.86,48.9805,13.41,0.07457121551081282,1.5,8.73939629036045,0.0006185630700000001
226.29,429.69,21714.0,4.6054e-05,-0.33765,1.6412,88.624,15.474,38.477,542.27,0.0059485,59.089,0.055706,supercritical,Ar,C7440371,argon,150.86,48.9805,13.41,0.07457121551081282,1.5,8.772674839987342,0.0006175841400000001
226.29,431.32,21748.0,4.5981e-05,-0.34237,1.6409,88.59,15.478,38.443,543.37,0.0055106,59.244,0.055828,supercritical,Ar,C7440371,argon,150.86,48.9805,13.41,0.07457121551081282,1.5,8.805953389614235,0.00061660521
226.29,432.95,21782.0,4.5909e-05,-0.34707,1.6405,88.555,15.482,38.408,544.47,0.0050768,59.399,0.055949,supercritical,Ar,C7440371,argon,150.86,48.9805,13.41,0.07457121551081282,1.5,8.839231939241126,0.00061563969
226.29,434.58,21817.0,4.5837e-05,-0.35174,1.6402,88.521,15.487,38.374,545.57,0.0046471,59.554,0.05607,supercritical,Ar,C7440371,argon,150.86,48.9805,13.41,0.07457121551081282,1.5,8.872510488868018,0.0006146741700000001
226.29,436.21,21850.0,4.5766e-05,-0.35639,1.64,88.486,15.491,38.34,546.66,0.0042215,59.708,0.056191,supercritical,Ar,C7440371,argon,150.86,48.9805,13.41,0.07457121551081282,1.5,8.90578903849491,0.0006137220600000001
226.29,437.84,21884.0,4.5695e-05,-0.36101,1.6397,88.452,15.495,38.307,547.75,0.0037998,59.863,0.056312,supercritical,Ar,C7440371,argon,150.86,48.9805,13.41,0.07457121551081282,1.5,8.939067588121803,0.0006127699500000001
226.29,439.47,21918.0,4.5625e-05,-0.36561,1.6395,88.419,15.499,38.273,548.84,0.0033821,60.017,0.056432,supercritical,Ar,C7440371,argon,150.86,48.9805,13.41,0.07457121551081282,1.5,8.972346137748696,0.00061183125
226.29,441.1,21951.0,4.5556e-05,-0.37019,1.6393,88.385,15.504,38.24,549.92,0.0029682,60.17,0.056553,supercritical,Ar,C7440371,argon,150.86,48.9805,13.41,0.07457121551081282,1.5,9.005624687375589,0.0006109059600000001
226.29,442.73,21984.0,4.5487e-05,-0.37474,1.6391,88.351,15.508,38.207,551.0,0.0025582,60.324,0.056673,supercritical,Ar,C7440371,argon,150.86,48.9805,13.41,0.07457121551081282,1.5,9.038903237002481,0.00060998067
226.29,444.36,22017.0,4.5419e-05,-0.37927,1.639,88.318,15.512,38.174,552.08,0.0021519,60.477,0.056792,supercritical,Ar,C7440371,argon,150.86,48.9805,13.41,0.07457121551081282,1.5,9.072181786629374,0.00060906879
226.29,445.99,22050.0,4.5351e-05,-0.38377,1.6388,88.285,15.516,38.142,553.16,0.0017493,60.63,0.056911,supercritical,Ar,C7440371,argon,150.86,48.9805,13.41,0.07457121551081282,1.5,9.105460336256266,0.00060815691
226.29,447.62,22083.0,4.5284e-05,-0.38826,1.6388,88.252,15.521,38.11,554.23,0.0013504,60.783,0.057031,supercritical,Ar,C7440371,argon,150.86,48.9805,13.41,0.07457121551081282,1.5,9.138738885883157,0.00060725844
226.29,449.25,22115.0,4.5218e-05,-0.39272,1.6387,88.219,15.525,38.078,555.3,0.00095519,60.936,0.057149,supercritical,Ar,C7440371,argon,150.86,48.9805,13.41,0.07457121551081282,1.5,9.17201743551005,0.00060637338