Temperature (K),Pressure (bar),Density (mol/m3),Volume (m3/mol),Internal Energy (kJ/mol),Enthalpy (kJ/mol),Entropy (J/mol*K),Cv (J/mol*K),Cp (J/mol*K),Sound Spd. (m/s),Joule-Thomson (K/bar),Viscosity (uPa*s),Therm. Cond. (W/m*K),Phase,substance,substance_id,substance_name,Tc,Pc,rhoc,Vmc,Tr,Pr,Vmr
425.85,674.58,17638.0,5.6694e-05,16.259,20.083,67.262,40.094,70.073,626.59,0.011032,72.401,0.090647,supercritical,CO2,C124389,carbon-dioxide,304.18,73.8,10.6,0.09433962264150944,1.4,9.140650406504067,0.0006009564
425.85,677.04,17663.0,5.6615e-05,16.248,20.081,67.225,40.098,70.036,627.97,0.010729,72.576,0.090814,supercritical,CO2,C124389,carbon-dioxide,304.18,73.8,10.6,0.09433962264150944,1.4,9.173983739837398,0.000600119
425.85,679.5,17688.0,5.6536e-05,16.238,20.079,67.188,40.102,70.0,629.35,0.010429,72.751,0.090981,supercritical,CO2,C124389,carbon-dioxide,304.18,73.8,10.6,0.09433962264150944,1.4,9.207317073170731,0.0005992816
425.85,681.96,17713.0,5.6457e-05,16.227,20.078,67.152,40.107,69.963,630.72,0.010132,72.926,0.091147,supercritical,CO2,C124389,carbon-dioxide,304.18,73.8,10.6,0.09433962264150944,1.4,9.240650406504066,0.0005984441999999999
425.85,684.42,17737.0,5.638e-05,16.217,20.076,67.115,40.111,69.927,632.09,0.0098374,73.1,0.091313,supercritical,CO2,C124389,carbon-dioxide,304.18,73.8,10.6,0.09433962264150944,1.4,9.273983739837398,0.0005976279999999999
425.85,686.88,17761.0,5.6302e-05,16.207,20.074,67.078,40.115,69.892,633.45,0.0095459,73.274,0.091478,supercritical,CO2,C124389,carbon-dioxide,304.18,73.8,10.6,0.09433962264150944,1.4,9.307317073170733,0.0005968012
425.85,689.33,17785.0,5.6226e-05,16.197,20.073,67.042,40.119,69.856,634.82,0.009257,73.447,0.091643,supercritical,CO2,C124389,carbon-dioxide,304.18,73.8,10.6,0.09433962264150944,1.4,9.340514905149053,0.0005959956
425.85,691.79,17810.0,5.615e-05,16.187,20.071,67.006,40.124,69.821,636.18,0.008971,73.621,0.091808,supercritical,CO2,C124389,carbon-dioxide,304.18,73.8,10.6,0.09433962264150944,1.4,9.373848238482385,0.00059519
425.85,694.25,17833.0,5.6074e-05,16.177,20.07,66.97,40.128,69.786,637.53,0.0086875,73.794,0.091972,supercritical,CO2,C124389,carbon-dioxide,304.18,73.8,10.6,0.09433962264150944,1.4,9.407181571815718,0.0005943843999999999
425.85,696.71,17857.0,5.5999e-05,16.167,20.068,66.934,40.132,69.751,638.88,0.0084068,73.966,0.092136,supercritical,CO2,C124389,carbon-dioxide,304.18,73.8,10.6,0.09433962264150944,1.4,9.440514905149053,0.0005935894
425.85,699.17,17881.0,5.5925e-05,16.157,20.067,66.899,40.136,69.717,640.23,0.0081287,74.138,0.0923,supercritical,CO2,C124389,carbon-dioxide,304.18,73.8,10.6,0.09433962264150944,1.4,9.473848238482384,0.000592805
425.85,701.63,17905.0,5.5851e-05,16.147,20.065,66.863,40.141,69.682,641.58,0.0078531,74.31,0.092463,supercritical,CO2,C124389,carbon-dioxide,304.18,73.8,10.6,0.09433962264150944,1.4,9.50718157181572,0.0005920206
425.85,704.08,17928.0,5.5778e-05,16.137,20.064,66.828,40.145,69.648,642.92,0.0075801,74.482,0.092626,supercritical,CO2,C124389,carbon-dioxide,304.18,73.8,10.6,0.09433962264150944,1.4,9.54037940379404,0.0005912468
425.85,706.54,17952.0,5.5705e-05,16.127,20.063,66.793,40.149,69.615,644.26,0.0073096,74.653,0.092789,supercritical,CO2,C124389,carbon-dioxide,304.18,73.8,10.6,0.09433962264150944,1.4,9.573712737127371,0.000590473
425.85,709.0,17975.0,5.5633e-05,16.117,20.061,66.758,40.154,69.581,645.59,0.0070417,74.824,0.092951,supercritical,CO2,C124389,carbon-dioxide,304.18,73.8,10.6,0.09433962264150944,1.4,9.607046070460704,0.0005897098
425.85,711.46,17998.0,5.5562e-05,16.107,20.06,66.723,40.158,69.548,646.93,0.0067761,74.994,0.093113,supercritical,CO2,C124389,carbon-dioxide,304.18,73.8,10.6,0.09433962264150944,1.4,9.64037940379404,0.0005889571999999999
425.85,713.92,18021.0,5.5491e-05,16.098,20.059,66.688,40.162,69.515,648.26,0.006513,75.164,0.093276,supercritical,CO2,C124389,carbon-dioxide,304.18,73.8,10.6,0.09433962264150944,1.4,9.67371273712737,0.0005882045999999999
425.85,716.38,18044.0,5.542e-05,16.088,20.058,66.654,40.166,69.482,649.58,0.0062523,75.334,0.093439,supercritical,CO2,C124389,carbon-dioxide,304.18,73.8,10.6,0.09433962264150944,1.4,9.707046070460706,0.0005874519999999999
425.85,718.83,18067.0,5.535e-05,16.078,20.057,66.619,40.171,69.45,650.9,0.005994,75.504,0.093601,supercritical,CO2,C124389,carbon-dioxide,304.18,73.8,10.6,0.09433962264150944,1.4,9.740243902439026,0.0005867099999999999
425.85,721.29,18090.0,5.528e-05,16.069,20.056,66.585,40.175,69.417,652.22,0.005738,75.673,0.093764,supercritical,CO2,C124389,carbon-dioxide,304.18,73.8,10.6,0.09433962264150944,1.4,9.773577235772358,0.000585968
425.85,723.75,18112.0,5.5211e-05,16.059,20.055,66.551,40.18,69.385,653.54,0.0054843,75.842,0.093926,supercritical,CO2,C124389,carbon-dioxide,304.18,73.8,10.6,0.09433962264150944,1.4,9.80691056910569,0.0005852365999999999
425.85,726.21,18135.0,5.5143e-05,16.05,20.054,66.517,40.184,69.353,654.85,0.0052329,76.01,0.094088,supercritical,CO2,C124389,carbon-dioxide,304.18,73.8,10.6,0.09433962264150944,1.4,9.840243902439026,0.0005845157999999999
425.85,728.67,18157.0,5.5075e-05,16.04,20.053,66.483,40.188,69.322,656.16,0.0049838,76.179,0.094249,supercritical,CO2,C124389,carbon-dioxide,304.18,73.8,10.6,0.09433962264150944,1.4,9.873577235772357,0.0005837949999999999
425.85,731.13,18180.0,5.5007e-05,16.031,20.052,66.449,40.193,69.29,657.47,0.0047369,76.347,0.09441,supercritical,CO2,C124389,carbon-dioxide,304.18,73.8,10.6,0.09433962264150944,1.4,9.906910569105692,0.0005830741999999999
425.85,733.58,18202.0,5.494e-05,16.021,20.052,66.416,40.197,69.259,658.77,0.0044921,76.514,0.094571,supercritical,CO2,C124389,carbon-dioxide,304.18,73.8,10.6,0.09433962264150944,1.4,9.940108401084013,0.0005823639999999999
425.85,736.04,18224.0,5.4873e-05,16.012,20.051,66.382,40.201,69.228,660.08,0.0042496,76.681,0.094731,supercritical,CO2,C124389,carbon-dioxide,304.18,73.8,10.6,0.09433962264150944,1.4,9.973441734417344,0.0005816538
425.85,738.5,18246.0,5.4807e-05,16.003,20.05,66.349,40.206,69.197,661.37,0.0040092,76.849,0.094891,supercritical,CO2,C124389,carbon-dioxide,304.18,73.8,10.6,0.09433962264150944,1.4,10.006775067750677,0.0005809541999999999
425.85,740.96,18268.0,5.4741e-05,15.993,20.05,66.316,40.21,69.167,662.67,0.0037709,77.015,0.095051,supercritical,CO2,C124389,carbon-dioxide,304.18,73.8,10.6,0.09433962264150944,1.4,10.040108401084012,0.0005802546
425.85,743.42,18290.0,5.4676e-05,15.984,20.049,66.283,40.214,69.136,663.96,0.0035347,77.182,0.095211,supercritical,CO2,C124389,carbon-dioxide,304.18,73.8,10.6,0.09433962264150944,1.4,10.073441734417344,0.0005795656
425.85,745.88,18311.0,5.4611e-05,15.975,20.048,66.25,40.219,69.106,665.25,0.0033005,77.348,0.09537,supercritical,CO2,C124389,carbon-dioxide,304.18,73.8,10.6,0.09433962264150944,1.4,10.106775067750679,0.0005788766
425.85,748.33,18333.0,5.4546e-05,15.966,20.048,66.217,40.223,69.076,666.53,0.0030685,77.514,0.095529,supercritical,CO2,C124389,carbon-dioxide,304.18,73.8,10.6,0.09433962264150944,1.4,10.139972899728999,0.0005781876
425.85,750.79,18355.0,5.4482e-05,15.957,20.047,66.184,40.228,69.047,667.82,0.0028384,77.679,0.095687,supercritical,CO2,C124389,carbon-dioxide,304.18,73.8,10.6,0.09433962264150944,1.4,10.17330623306233,0.0005775091999999999
425.85,753.25,18376.0,5.4419e-05,15.948,20.047,66.152,40.232,69.017,669.09,0.0026103,77.844,0.095845,supercritical,CO2,C124389,carbon-dioxide,304.18,73.8,10.6,0.09433962264150944,1.4,10.206639566395664,0.0005768414
425.85,755.71,18397.0,5.4355e-05,15.939,20.046,66.119,40.237,68.988,670.37,0.0023842,78.009,0.096003,supercritical,CO2,C124389,carbon-dioxide,304.18,73.8,10.6,0.09433962264150944,1.4,10.239972899728999,0.000576163
425.85,758.17,18419.0,5.4293e-05,15.93,20.046,66.087,40.241,68.959,671.64,0.00216,78.174,0.096161,supercritical,CO2,C124389,carbon-dioxide,304.18,73.8,10.6,0.09433962264150944,1.4,10.27330623306233,0.0005755058
425.85,760.63,18440.0,5.423e-05,15.921,20.046,66.055,40.245,68.93,672.91,0.0019378,78.339,0.096318,supercritical,CO2,C124389,carbon-dioxide,304.18,73.8,10.6,0.09433962264150944,1.4,10.306639566395665,0.0005748379999999999
425.85,763.08,18461.0,5.4168e-05,15.912,20.045,66.023,40.25,68.902,674.18,0.0017175,78.503,0.096475,supercritical,CO2,C124389,carbon-dioxide,304.18,73.8,10.6,0.09433962264150944,1.4,10.339837398373986,0.0005741807999999999
425.85,765.54,18482.0,5.4107e-05,15.903,20.045,65.991,40.254,68.873,675.45,0.001499,78.666,0.096632,supercritical,CO2,C124389,carbon-dioxide,304.18,73.8,10.6,0.09433962264150944,1.4,10.373170731707317,0.0005735342
425.85,768.0,18503.0,5.4046e-05,15.894,20.045,65.959,40.259,68.845,676.71,0.0012824,78.83,0.096788,supercritical,CO2,C124389,carbon-dioxide,304.18,73.8,10.6,0.09433962264150944,1.4,10.40650406504065,0.0005728875999999999
425.85,770.46,18524.0,5.3985e-05,15.885,20.045,65.928,40.263,68.817,677.97,0.0010676,78.993,0.096944,supercritical,CO2,C124389,carbon-dioxide,304.18,73.8,10.6,0.09433962264150944,1.4,10.439837398373985,0.0005722409999999999
425.85,772.92,18544.0,5.3925e-05,15.877,20.044,65.896,40.268,68.789,679.22,0.00085464,79.156,0.0971,supercritical,CO2,C124389,carbon-dioxide,304.18,73.8,10.6,0.09433962264150944,1.4,10.473170731707317,0.000571605
425.85,775.38,18565.0,5.3865e-05,15.868,20.044,65.865,40.272,68.761,680.47,0.00064347,79.319,0.097256,supercritical,CO2,C124389,carbon-dioxide,304.18,73.8,10.6,0.09433962264150944,1.4,10.506504065040652,0.000570969
425.85,777.83,18586.0,5.3805e-05,15.859,20.044,65.833,40.277,68.734,681.72,0.00043406,79.482,0.097411,supercritical,CO2,C124389,carbon-dioxide,304.18,73.8,10.6,0.09433962264150944,1.4,10.539701897018972,0.0005703329999999999
425.85,780.29,18606.0,5.3746e-05,15.85,20.044,65.802,40.281,68.707,682.97,0.00022641,79.644,0.097566,supercritical,CO2,C124389,carbon-dioxide,304.18,73.8,10.6,0.09433962264150944,1.4,10.573035230352303,0.0005697075999999999
425.85,782.75,18626.0,5.3687e-05,15.842,20.044,65.771,40.286,68.68,684.22,2.048e-05,79.806,0.097721,supercritical,CO2,C124389,carbon-dioxide,304.18,73.8,10.6,0.09433962264150944,1.4,10.606368563685637,0.0005690822
425.85,785.21,18647.0,5.3629e-05,15.833,20.044,65.74,40.29,68.653,685.46,-0.00018374,79.967,0.097875,supercritical,CO2,C124389,carbon-dioxide,304.18,73.8,10.6,0.09433962264150944,1.4,10.639701897018972,0.0005684673999999999
425.85,787.67,18667.0,5.3571e-05,15.825,20.044,65.709,40.295,68.626,686.7,-0.00038627,80.129,0.098029,supercritical,CO2,C124389,carbon-dioxide,304.18,73.8,10.6,0.09433962264150944,1.4,10.673035230352303,0.0005678526
425.85,790.12,18687.0,5.3513e-05,15.816,20.044,65.679,40.299,68.599,687.93,-0.00058713,80.29,0.098183,supercritical,CO2,C124389,carbon-dioxide,304.18,73.8,10.6,0.09433962264150944,1.4,10.706233062330623,0.0005672378
425.85,792.58,18707.0,5.3456e-05,15.808,20.044,65.648,40.304,68.573,689.16,-0.00078635,80.451,0.098337,supercritical,CO2,C124389,carbon-dioxide,304.18,73.8,10.6,0.09433962264150944,1.4,10.739566395663958,0.0005666336
425.85,795.04,18727.0,5.3399e-05,15.799,20.045,65.618,40.308,68.547,690.39,-0.00098393,80.612,0.09849,supercritical,CO2,C124389,carbon-dioxide,304.18,73.8,10.6,0.09433962264150944,1.4,10.77289972899729,0.0005660293999999999
425.85,797.5,18747.0,5.3342e-05,15.791,20.045,65.587,40.313,68.521,691.62,-0.0011799,80.772,0.098643,supercritical,CO2,C124389,carbon-dioxide,304.18,73.8,10.6,0.09433962264150944,1.4,10.806233062330623,0.0005654251999999999
425.85,799.96,18767.0,5.3286e-05,15.782,20.045,65.557,40.317,68.495,692.84,-0.0013743,80.932,0.098796,supercritical,CO2,C124389,carbon-dioxide,304.18,73.8,10.6,0.09433962264150944,1.4,10.839566395663958,0.0005648315999999999
425.85,802.42,18787.0,5.323e-05,15.774,20.045,65.527,40.322,68.47,694.07,-0.0015671,81.092,0.098948,supercritical,CO2,C124389,carbon-dioxide,304.18,73.8,10.6,0.09433962264150944,1.4,10.87289972899729,0.0005642379999999999
425.85,804.87,18806.0,5.3174e-05,15.766,20.046,65.497,40.326,68.444,695.29,-0.0017583,81.252,0.099101,supercritical,CO2,C124389,carbon-dioxide,304.18,73.8,10.6,0.09433962264150944,1.4,10.90609756097561,0.0005636444
425.85,807.33,18826.0,5.3119e-05,15.757,20.046,65.467,40.331,68.419,696.5,-0.001948,81.411,0.099253,supercritical,CO2,C124389,carbon-dioxide,304.18,73.8,10.6,0.09433962264150944,1.4,10.939430894308945,0.0005630613999999999
425.85,809.79,18845.0,5.3064e-05,15.749,20.046,65.437,40.335,68.394,697.71,-0.0021362,81.57,0.099404,supercritical,CO2,C124389,carbon-dioxide,304.18,73.8,10.6,0.09433962264150944,1.4,10.972764227642276,0.0005624784
425.85,812.25,18865.0,5.3009e-05,15.741,20.047,65.407,40.34,68.369,698.93,-0.0023229,81.729,0.099556,supercritical,CO2,C124389,carbon-dioxide,304.18,73.8,10.6,0.09433962264150944,1.4,11.00609756097561,0.0005618954
425.85,814.71,18884.0,5.2955e-05,15.733,20.047,65.378,40.344,68.344,700.13,-0.0025081,81.888,0.099707,supercritical,CO2,C124389,carbon-dioxide,304.18,73.8,10.6,0.09433962264150944,1.4,11.039430894308945,0.000561323
425.85,817.17,18903.0,5.2901e-05,15.725,20.047,65.348,40.349,68.319,701.34,-0.0026918,82.046,0.099858,supercritical,CO2,C124389,carbon-dioxide,304.18,73.8,10.6,0.09433962264150944,1.4,11.072764227642276,0.0005607505999999999
425.85,819.62,18922.0,5.2847e-05,15.716,20.048,65.319,40.353,68.295,702.54,-0.0028741,82.204,0.10001,supercritical,CO2,C124389,carbon-dioxide,304.18,73.8,10.6,0.09433962264150944,1.4,11.105962059620596,0.0005601781999999999
425.85,822.08,18942.0,5.2794e-05,15.708,20.048,65.289,40.358,68.271,703.74,-0.0030549,82.362,0.10016,supercritical,CO2,C124389,carbon-dioxide,304.18,73.8,10.6,0.09433962264150944,1.4,11.139295392953931,0.0005596164
425.85,824.54,18961.0,5.2741e-05,15.7,20.049,65.26,40.363,68.247,704.94,-0.0032343,82.52,0.10031,supercritical,CO2,C124389,carbon-dioxide,304.18,73.8,10.6,0.09433962264150944,1.4,11.172628726287263,0.0005590546
425.85,827.0,18980.0,5.2688e-05,15.692,20.049,65.231,40.367,68.223,706.13,-0.0034123,82.677,0.10046,supercritical,CO2,C124389,carbon-dioxide,304.18,73.8,10.6,0.09433962264150944,1.4,11.205962059620596,0.0005584928
425.85,829.46,18998.0,5.2636e-05,15.684,20.05,65.202,40.372,68.199,707.32,-0.0035889,82.835,0.10061,supercritical,CO2,C124389,carbon-dioxide,304.18,73.8,10.6,0.09433962264150944,1.4,11.239295392953931,0.0005579415999999999
425.85,831.92,19017.0,5.2584e-05,15.676,20.051,65.173,40.376,68.175,708.51,-0.0037642,82.992,0.10076,supercritical,CO2,C124389,carbon-dioxide,304.18,73.8,10.6,0.09433962264150944,1.4,11.272628726287262,0.0005573904
425.85,834.37,19036.0,5.2532e-05,15.668,20.051,65.144,40.381,68.152,709.7,-0.003938,83.149,0.10091,supercritical,CO2,C124389,carbon-dioxide,304.18,73.8,10.6,0.09433962264150944,1.4,11.305826558265583,0.0005568391999999999
425.85,836.83,19055.0,5.248e-05,15.66,20.052,65.115,40.385,68.129,710.89,-0.0041106,83.305,0.10106,supercritical,CO2,C124389,carbon-dioxide,304.18,73.8,10.6,0.09433962264150944,1.4,11.339159891598918,0.0005562879999999999
425.85,839.29,19073.0,5.2429e-05,15.652,20.053,65.087,40.39,68.105,712.07,-0.0042818,83.461,0.10121,supercritical,CO2,C124389,carbon-dioxide,304.18,73.8,10.6,0.09433962264150944,1.4,11.37249322493225,0.0005557474
425.85,841.75,19092.0,5.2378e-05,15.644,20.053,65.058,40.395,68.082,713.25,-0.0044516,83.618,0.10135,supercritical,CO2,C124389,carbon-dioxide,304.18,73.8,10.6,0.09433962264150944,1.4,11.405826558265582,0.0005552068
425.85,844.21,19110.0,5.2328e-05,15.637,20.054,65.03,40.399,68.059,714.42,-0.0046202,83.774,0.1015,supercritical,CO2,C124389,carbon-dioxide,304.18,73.8,10.6,0.09433962264150944,1.4,11.439159891598917,0.0005546768
425.85,846.67,19129.0,5.2277e-05,15.629,20.055,65.001,40.404,68.037,715.6,-0.0047875,83.929,0.10165,supercritical,CO2,C124389,carbon-dioxide,304.18,73.8,10.6,0.09433962264150944,1.4,11.472493224932249,0.0005541362
425.85,849.12,19147.0,5.2227e-05,15.621,20.056,64.973,40.409,68.014,716.77,-0.0049535,84.085,0.1018,supercritical,CO2,C124389,carbon-dioxide,304.18,73.8,10.6,0.09433962264150944,1.4,11.50569105691057,0.0005536062
425.85,851.58,19165.0,5.2177e-05,15.613,20.057,64.945,40.413,67.992,717.94,-0.0051183,84.24,0.10195,supercritical,CO2,C124389,carbon-dioxide,304.18,73.8,10.6,0.09433962264150944,1.4,11.539024390243904,0.0005530762
425.85,854.04,19184.0,5.2128e-05,15.606,20.057,64.917,40.418,67.97,719.1,-0.0052818,84.395,0.10209,supercritical,CO2,C124389,carbon-dioxide,304.18,73.8,10.6,0.09433962264150944,1.4,11.572357723577236,0.0005525568
425.85,856.5,19202.0,5.2079e-05,15.598,20.058,64.889,40.422,67.947,720.27,-0.0054441,84.55,0.10224,supercritical,CO2,C124389,carbon-dioxide,304.18,73.8,10.6,0.09433962264150944,1.4,11.605691056910569,0.0005520373999999999
425.85,858.96,19220.0,5.203e-05,15.59,20.059,64.861,40.427,67.925,721.43,-0.0056052,84.704,0.10239,supercritical,CO2,C124389,carbon-dioxide,304.18,73.8,10.6,0.09433962264150944,1.4,11.639024390243904,0.000551518
425.85,861.42,19238.0,5.1981e-05,15.583,20.06,64.833,40.432,67.904,722.59,-0.005765,84.859,0.10253,supercritical,CO2,C124389,carbon-dioxide,304.18,73.8,10.6,0.09433962264150944,1.4,11.672357723577235,0.0005509986
425.85,863.87,19256.0,5.1933e-05,15.575,20.061,64.806,40.436,67.882,723.74,-0.0059237,85.013,0.10268,supercritical,CO2,C124389,carbon-dioxide,304.18,73.8,10.6,0.09433962264150944,1.4,11.705555555555556,0.0005504898
425.85,866.33,19274.0,5.1885e-05,15.567,20.062,64.778,40.441,67.86,724.9,-0.0060811,85.167,0.10283,supercritical,CO2,C124389,carbon-dioxide,304.18,73.8,10.6,0.09433962264150944,1.4,11.73888888888889,0.000549981
425.85,868.79,19291.0,5.1837e-05,15.56,20.063,64.751,40.446,67.839,726.05,-0.0062375,85.321,0.10297,supercritical,CO2,C124389,carbon-dioxide,304.18,73.8,10.6,0.09433962264150944,1.4,11.772222222222222,0.0005494721999999999
425.85,871.25,19309.0,5.1789e-05,15.552,20.064,64.723,40.45,67.818,727.2,-0.0063926,85.474,0.10312,supercritical,CO2,C124389,carbon-dioxide,304.18,73.8,10.6,0.09433962264150944,1.4,11.805555555555555,0.0005489634
425.85,873.71,19327.0,5.1742e-05,15.545,20.065,64.696,40.455,67.797,728.34,-0.0065466,85.628,0.10326,supercritical,CO2,C124389,carbon-dioxide,304.18,73.8,10.6,0.09433962264150944,1.4,11.83888888888889,0.0005484652
425.85,876.17,19344.0,5.1695e-05,15.537,20.066,64.668,40.459,67.776,729.49,-0.0066995,85.781,0.10341,supercritical,CO2,C124389,carbon-dioxide,304.18,73.8,10.6,0.09433962264150944,1.4,11.872222222222222,0.0005479669999999999
425.85,878.62,19362.0,5.1648e-05,15.53,20.068,64.641,40.464,67.755,730.63,-0.0068513,85.934,0.10356,supercritical,CO2,C124389,carbon-dioxide,304.18,73.8,10.6,0.09433962264150944,1.4,11.905420054200542,0.0005474687999999999
425.85,881.08,19379.0,5.1601e-05,15.522,20.069,64.614,40.469,67.734,731.77,-0.0070019,86.087,0.1037,supercritical,CO2,C124389,carbon-dioxide,304.18,73.8,10.6,0.09433962264150944,1.4,11.938753387533877,0.0005469706
425.85,883.54,19397.0,5.1555e-05,15.515,20.07,64.587,40.473,67.713,732.91,-0.0071515,86.239,0.10385,supercritical,CO2,C124389,carbon-dioxide,304.18,73.8,10.6,0.09433962264150944,1.4,11.972086720867209,0.000546483
425.85,886.0,19414.0,5.1509e-05,15.507,20.071,64.56,40.478,67.693,734.04,-0.0072999,86.392,0.10399,supercritical,CO2,C124389,carbon-dioxide,304.18,73.8,10.6,0.09433962264150944,1.4,12.005420054200542,0.0005459953999999999
425.85,888.46,19432.0,5.1463e-05,15.5,20.072,64.533,40.483,67.673,735.17,-0.0074473,86.544,0.10413,supercritical,CO2,C124389,carbon-dioxide,304.18,73.8,10.6,0.09433962264150944,1.4,12.038753387533877,0.0005455077999999999
425.85,890.92,19449.0,5.1417e-05,15.493,20.074,64.507,40.488,67.652,736.3,-0.0075937,86.696,0.10428,supercritical,CO2,C124389,carbon-dioxide,304.18,73.8,10.6,0.09433962264150944,1.4,12.072086720867208,0.0005450202
425.85,893.37,19466.0,5.1372e-05,15.485,20.075,64.48,40.492,67.632,737.43,-0.0077389,86.847,0.10442,supercritical,CO2,C124389,carbon-dioxide,304.18,73.8,10.6,0.09433962264150944,1.4,12.105284552845529,0.0005445431999999999