Temperature (K),Pressure (bar),Density (mol/m3),Volume (m3/mol),Internal Energy (kJ/mol),Enthalpy (kJ/mol),Entropy (J/mol*K),Cv (J/mol*K),Cp (J/mol*K),Sound Spd. (m/s),Joule-Thomson (K/bar),Viscosity (uPa*s),Therm. Cond. (W/m*K),Phase,substance,substance_id,substance_name,Tc,Pc,rhoc,Vmc,Tr,Pr,Vmr
286.63,154.22,6951.2,0.00014386,2.5614,4.78,108.82,13.568,29.719,347.2,0.21839,27.681,0.025329,supercritical,Ar,C7440371,argon,150.86,48.9805,13.41,0.07457121551081282,1.9,3.1485999530425373,0.0019291626
286.63,155.85,7025.3,0.00014234,2.5511,4.7695,108.7,13.576,29.802,347.81,0.21658,27.77,0.025437,supercritical,Ar,C7440371,argon,150.86,48.9805,13.41,0.07457121551081282,1.9,3.1818785026694294,0.0019087794000000001
286.63,157.48,7099.3,0.00014086,2.5407,4.759,108.58,13.585,29.883,348.42,0.21479,27.859,0.025546,supercritical,Ar,C7440371,argon,150.86,48.9805,13.41,0.07457121551081282,1.9,3.215157052296322,0.0018889326000000003
286.63,159.11,7173.1,0.00013941,2.5304,4.7485,108.47,13.594,29.964,349.03,0.213,27.949,0.025655,supercritical,Ar,C7440371,argon,150.86,48.9805,13.41,0.07457121551081282,1.9,3.2484356019232146,0.0018694881000000001
286.63,160.74,7246.9,0.00013799,2.5201,4.7382,108.35,13.603,30.044,349.66,0.21121,28.039,0.025764,supercritical,Ar,C7440371,argon,150.86,48.9805,13.41,0.07457121551081282,1.9,3.2817141515501067,0.0018504459000000001
286.63,162.37,7320.6,0.0001366,2.5099,4.7279,108.24,13.611,30.123,350.29,0.20944,28.129,0.025873,supercritical,Ar,C7440371,argon,150.86,48.9805,13.41,0.07457121551081282,1.9,3.3149927011769993,0.0018318060000000003
286.63,164.0,7394.1,0.00013524,2.4996,4.7176,108.13,13.62,30.202,350.92,0.20767,28.22,0.025982,supercritical,Ar,C7440371,argon,150.86,48.9805,13.41,0.07457121551081282,1.9,3.3482712508038914,0.0018135684000000003
286.63,165.63,7467.5,0.00013391,2.4894,4.7074,108.01,13.628,30.28,351.56,0.2059,28.311,0.026091,supercritical,Ar,C7440371,argon,150.86,48.9805,13.41,0.07457121551081282,1.9,3.3815498004307836,0.0017957331000000001
286.63,167.26,7540.8,0.00013261,2.4792,4.6973,107.9,13.637,30.357,352.2,0.20415,28.402,0.026201,supercritical,Ar,C7440371,argon,150.86,48.9805,13.41,0.07457121551081282,1.9,3.4148283500576757,0.0017783001
286.63,168.89,7614.0,0.00013134,2.4691,4.6872,107.79,13.645,30.433,352.85,0.2024,28.494,0.02631,supercritical,Ar,C7440371,argon,150.86,48.9805,13.41,0.07457121551081282,1.9,3.4481068996845683,0.0017612694000000001
286.63,170.52,7687.0,0.00013009,2.4589,4.6772,107.68,13.653,30.509,353.5,0.20066,28.586,0.02642,supercritical,Ar,C7440371,argon,150.86,48.9805,13.41,0.07457121551081282,1.9,3.481385449311461,0.0017445069000000001
286.63,172.15,7759.9,0.00012887,2.4488,4.6673,107.58,13.661,30.584,354.16,0.19892,28.679,0.02653,supercritical,Ar,C7440371,argon,150.86,48.9805,13.41,0.07457121551081282,1.9,3.514663998938353,0.0017281467000000003
286.63,173.78,7832.6,0.00012767,2.4387,4.6574,107.47,13.67,30.658,354.83,0.1972,28.771,0.026639,supercritical,Ar,C7440371,argon,150.86,48.9805,13.41,0.07457121551081282,1.9,3.5479425485652456,0.0017120547000000002
286.63,175.41,7905.3,0.0001265,2.4286,4.6475,107.36,13.678,30.731,355.5,0.19548,28.864,0.026749,supercritical,Ar,C7440371,argon,150.86,48.9805,13.41,0.07457121551081282,1.9,3.5812210981921377,0.0016963650000000002
286.63,177.04,7977.7,0.00012535,2.4186,4.6378,107.26,13.686,30.803,356.17,0.19377,28.958,0.026859,supercritical,Ar,C7440371,argon,150.86,48.9805,13.41,0.07457121551081282,1.9,3.61449964781903,0.0016809435000000002
286.63,178.67,8050.0,0.00012422,2.4086,4.6281,107.15,13.694,30.875,356.85,0.19207,29.051,0.02697,supercritical,Ar,C7440371,argon,150.86,48.9805,13.41,0.07457121551081282,1.9,3.647778197445922,0.0016657902000000002
286.63,180.3,8122.2,0.00012312,2.3986,4.6185,107.05,13.702,30.945,357.54,0.19037,29.145,0.02708,supercritical,Ar,C7440371,argon,150.86,48.9805,13.41,0.07457121551081282,1.9,3.681056747072815,0.0016510392000000003
286.63,181.93,8194.2,0.00012204,2.3887,4.6089,106.94,13.71,31.015,358.23,0.18869,29.24,0.02719,supercritical,Ar,C7440371,argon,150.86,48.9805,13.41,0.07457121551081282,1.9,3.714335296699707,0.0016365564000000003
286.63,183.56,8266.1,0.00012098,2.3787,4.5994,106.84,13.717,31.084,358.92,0.18701,29.334,0.0273,supercritical,Ar,C7440371,argon,150.86,48.9805,13.41,0.07457121551081282,1.9,3.7476138463265993,0.0016223418
286.63,185.19,8337.8,0.00011994,2.3688,4.5899,106.74,13.725,31.152,359.62,0.18534,29.429,0.027411,supercritical,Ar,C7440371,argon,150.86,48.9805,13.41,0.07457121551081282,1.9,3.780892395953492,0.0016083954
286.63,186.82,8409.3,0.00011892,2.359,4.5806,106.64,13.733,31.22,360.33,0.18368,29.524,0.027521,supercritical,Ar,C7440371,argon,150.86,48.9805,13.41,0.07457121551081282,1.9,3.814170945580384,0.0015947172000000003
286.63,188.45,8480.7,0.00011792,2.3491,4.5712,106.54,13.74,31.286,361.04,0.18202,29.62,0.027632,supercritical,Ar,C7440371,argon,150.86,48.9805,13.41,0.07457121551081282,1.9,3.847449495207276,0.0015813072000000002
286.63,190.08,8551.8,0.00011693,2.3393,4.562,106.44,13.748,31.352,361.75,0.18038,29.716,0.027743,supercritical,Ar,C7440371,argon,150.86,48.9805,13.41,0.07457121551081282,1.9,3.880728044834169,0.0015680313
286.63,191.71,8622.9,0.00011597,2.3295,4.5528,106.34,13.755,31.416,362.47,0.17874,29.812,0.027853,supercritical,Ar,C7440371,argon,150.86,48.9805,13.41,0.07457121551081282,1.9,3.9140065944610614,0.0015551577000000002
286.63,193.34,8693.7,0.00011503,2.3198,4.5437,106.24,13.763,31.48,363.19,0.17711,29.908,0.027964,supercritical,Ar,C7440371,argon,150.86,48.9805,13.41,0.07457121551081282,1.9,3.9472851440879535,0.0015425523
286.63,194.97,8764.4,0.0001141,2.31,4.5346,106.15,13.77,31.543,363.92,0.17549,30.005,0.028075,supercritical,Ar,C7440371,argon,150.86,48.9805,13.41,0.07457121551081282,1.9,3.9805636937148456,0.0015300810000000002
286.63,196.6,8834.9,0.00011319,2.3004,4.5256,106.05,13.778,31.606,364.65,0.17388,30.102,0.028186,supercritical,Ar,C7440371,argon,150.86,48.9805,13.41,0.07457121551081282,1.9,4.013842243341738,0.0015178779000000002
286.63,198.23,8905.2,0.00011229,2.2907,4.5167,105.96,13.785,31.667,365.39,0.17228,30.199,0.028297,supercritical,Ar,C7440371,argon,150.86,48.9805,13.41,0.07457121551081282,1.9,4.04712079296863,0.0015058089
286.63,199.86,8975.3,0.00011142,2.2811,4.5078,105.86,13.792,31.727,366.13,0.17069,30.297,0.028408,supercritical,Ar,C7440371,argon,150.86,48.9805,13.41,0.07457121551081282,1.9,4.080399342595523,0.0014941422000000002
286.63,201.49,9045.2,0.00011056,2.2715,4.4991,105.77,13.799,31.787,366.87,0.16911,30.394,0.028519,supercritical,Ar,C7440371,argon,150.86,48.9805,13.41,0.07457121551081282,1.9,4.113677892222415,0.0014826096000000002
286.63,203.12,9114.9,0.00010971,2.2619,4.4903,105.68,13.807,31.846,367.62,0.16753,30.493,0.02863,supercritical,Ar,C7440371,argon,150.86,48.9805,13.41,0.07457121551081282,1.9,4.146956441849308,0.0014712111000000003
286.63,204.75,9184.5,0.00010888,2.2524,4.4817,105.58,13.814,31.904,368.37,0.16597,30.591,0.028741,supercritical,Ar,C7440371,argon,150.86,48.9805,13.41,0.07457121551081282,1.9,4.180234991476199,0.0014600808000000002
286.63,206.38,9253.8,0.00010806,2.2428,4.4731,105.49,13.821,31.961,369.13,0.16441,30.69,0.028853,supercritical,Ar,C7440371,argon,150.86,48.9805,13.41,0.07457121551081282,1.9,4.213513541103092,0.0014490846000000002
286.63,208.01,9323.0,0.00010726,2.2334,4.4645,105.4,13.828,32.017,369.89,0.16286,30.789,0.028964,supercritical,Ar,C7440371,argon,150.86,48.9805,13.41,0.07457121551081282,1.9,4.2467920907299845,0.0014383566000000002
286.63,209.64,9391.9,0.00010647,2.2239,4.4561,105.31,13.835,32.072,370.66,0.16132,30.888,0.029075,supercritical,Ar,C7440371,argon,150.86,48.9805,13.41,0.07457121551081282,1.9,4.280070640356876,0.0014277627000000002
286.63,211.27,9460.7,0.0001057,2.2145,4.4477,105.22,13.841,32.126,371.43,0.1598,30.988,0.029187,supercritical,Ar,C7440371,argon,150.86,48.9805,13.41,0.07457121551081282,1.9,4.31334918998377,0.0014174370000000001
286.63,212.9,9529.2,0.00010494,2.2051,4.4393,105.13,13.848,32.18,372.2,0.15828,31.087,0.029298,supercritical,Ar,C7440371,argon,150.86,48.9805,13.41,0.07457121551081282,1.9,4.346627739610661,0.0014072454
286.63,214.53,9597.5,0.00010419,2.1958,4.4311,105.04,13.855,32.233,372.98,0.15677,31.188,0.02941,supercritical,Ar,C7440371,argon,150.86,48.9805,13.41,0.07457121551081282,1.9,4.379906289237554,0.0013971879000000001
286.63,216.16,9665.7,0.00010346,2.1865,4.4229,104.96,13.862,32.284,373.76,0.15526,31.288,0.029521,supercritical,Ar,C7440371,argon,150.86,48.9805,13.41,0.07457121551081282,1.9,4.413184838864446,0.0013873986000000002
286.63,217.79,9733.6,0.00010274,2.1772,4.4147,104.87,13.869,32.335,374.55,0.15377,31.389,0.029633,supercritical,Ar,C7440371,argon,150.86,48.9805,13.41,0.07457121551081282,1.9,4.446463388491338,0.0013777434
286.63,219.42,9801.3,0.00010203,2.168,4.4066,104.78,13.875,32.386,375.34,0.15229,31.49,0.029745,supercritical,Ar,C7440371,argon,150.86,48.9805,13.41,0.07457121551081282,1.9,4.479741938118231,0.0013682223000000002
286.63,221.05,9868.8,0.00010133,2.1588,4.3986,104.7,13.882,32.435,376.13,0.15082,31.591,0.029856,supercritical,Ar,C7440371,argon,150.86,48.9805,13.41,0.07457121551081282,1.9,4.513020487745123,0.0013588353
286.63,222.68,9936.1,0.00010064,2.1496,4.3907,104.61,13.888,32.483,376.93,0.14935,31.692,0.029968,supercritical,Ar,C7440371,argon,150.86,48.9805,13.41,0.07457121551081282,1.9,4.546299037372016,0.0013495824000000001
286.63,224.31,10003.0,9.9969e-05,2.1404,4.3828,104.53,13.895,32.531,377.73,0.1479,31.794,0.03008,supercritical,Ar,C7440371,argon,150.86,48.9805,13.41,0.07457121551081282,1.9,4.579577586998908,0.0013405842900000003
286.63,225.94,10070.0,9.9305e-05,2.1313,4.375,104.44,13.901,32.578,378.53,0.14645,31.896,0.030192,supercritical,Ar,C7440371,argon,150.86,48.9805,13.41,0.07457121551081282,1.9,4.6128561366258,0.00133168005
286.63,227.57,10137.0,9.8652e-05,2.1222,4.3673,104.36,13.908,32.624,379.34,0.14502,31.999,0.030304,supercritical,Ar,C7440371,argon,150.86,48.9805,13.41,0.07457121551081282,1.9,4.646134686252692,0.0013229233200000002
286.63,229.2,10203.0,9.801e-05,2.1132,4.3596,104.28,13.914,32.669,380.15,0.14359,32.101,0.030416,supercritical,Ar,C7440371,argon,150.86,48.9805,13.41,0.07457121551081282,1.9,4.679413235879585,0.0013143141000000003
286.63,230.83,10269.0,9.7379e-05,2.1042,4.352,104.19,13.92,32.713,380.96,0.14218,32.204,0.030528,supercritical,Ar,C7440371,argon,150.86,48.9805,13.41,0.07457121551081282,1.9,4.712691785506477,0.00130585239
286.63,232.46,10335.0,9.6757e-05,2.0952,4.3444,104.11,13.927,32.756,381.78,0.14077,32.307,0.03064,supercritical,Ar,C7440371,argon,150.86,48.9805,13.41,0.07457121551081282,1.9,4.74597033513337,0.0012975113700000001
286.63,234.09,10401.0,9.6146e-05,2.0863,4.3369,104.03,13.933,32.799,382.6,0.13937,32.411,0.030752,supercritical,Ar,C7440371,argon,150.86,48.9805,13.41,0.07457121551081282,1.9,4.779248884760261,0.0012893178600000001
286.63,235.72,10466.0,9.5544e-05,2.0774,4.3295,103.95,13.939,32.841,383.42,0.13798,32.515,0.030864,supercritical,Ar,C7440371,argon,150.86,48.9805,13.41,0.07457121551081282,1.9,4.812527434387154,0.0012812450400000001
286.63,237.35,10532.0,9.4952e-05,2.0685,4.3222,103.87,13.945,32.882,384.25,0.13661,32.619,0.030977,supercritical,Ar,C7440371,argon,150.86,48.9805,13.41,0.07457121551081282,1.9,4.845805984014047,0.0012733063200000001
286.63,238.98,10597.0,9.4369e-05,2.0597,4.3149,103.79,13.951,32.922,385.08,0.13524,32.723,0.031089,supercritical,Ar,C7440371,argon,150.86,48.9805,13.41,0.07457121551081282,1.9,4.879084533640938,0.00126548829
286.63,240.61,10662.0,9.3795e-05,2.0509,4.3077,103.71,13.957,32.961,385.91,0.13388,32.827,0.031201,supercritical,Ar,C7440371,argon,150.86,48.9805,13.41,0.07457121551081282,1.9,4.912363083267832,0.0012577909500000003
286.63,242.24,10726.0,9.323e-05,2.0421,4.3005,103.64,13.963,33.0,386.75,0.13253,32.932,0.031314,supercritical,Ar,C7440371,argon,150.86,48.9805,13.41,0.07457121551081282,1.9,4.9456416328947235,0.0012502143
286.63,243.87,10790.0,9.2674e-05,2.0334,4.2934,103.56,13.969,33.038,387.59,0.13118,33.037,0.031426,supercritical,Ar,C7440371,argon,150.86,48.9805,13.41,0.07457121551081282,1.9,4.978920182521616,0.0012427583400000002
286.63,245.5,10855.0,9.2127e-05,2.0247,4.2864,103.48,13.975,33.075,388.43,0.12985,33.143,0.031539,supercritical,Ar,C7440371,argon,150.86,48.9805,13.41,0.07457121551081282,1.9,5.012198732148508,0.00123542307
286.63,247.13,10918.0,9.1588e-05,2.016,4.2794,103.4,13.981,33.111,389.27,0.12853,33.248,0.031651,supercritical,Ar,C7440371,argon,150.86,48.9805,13.41,0.07457121551081282,1.9,5.0454772817754,0.0012281950800000002
286.63,248.76,10982.0,9.1057e-05,2.0074,4.2725,103.33,13.987,33.147,390.12,0.12722,33.354,0.031764,supercritical,Ar,C7440371,argon,150.86,48.9805,13.41,0.07457121551081282,1.9,5.078755831402293,0.0012210743700000002
286.63,250.39,11046.0,9.0534e-05,1.9988,4.2657,103.25,13.993,33.182,390.97,0.12591,33.46,0.031877,supercritical,Ar,C7440371,argon,150.86,48.9805,13.41,0.07457121551081282,1.9,5.112034381029185,0.00121406094
286.63,252.02,11109.0,9.0019e-05,1.9902,4.2589,103.18,13.999,33.216,391.82,0.12462,33.566,0.031989,supercritical,Ar,C7440371,argon,150.86,48.9805,13.41,0.07457121551081282,1.9,5.145312930656078,0.0012071547900000003
286.63,253.65,11172.0,8.9512e-05,1.9817,4.2522,103.1,14.004,33.249,392.68,0.12334,33.673,0.032102,supercritical,Ar,C7440371,argon,150.86,48.9805,13.41,0.07457121551081282,1.9,5.17859148028297,0.0012003559200000002
286.63,255.28,11234.0,8.9012e-05,1.9732,4.2455,103.03,14.01,33.282,393.53,0.12206,33.779,0.032215,supercritical,Ar,C7440371,argon,150.86,48.9805,13.41,0.07457121551081282,1.9,5.211870029909862,0.00119365092
286.63,256.91,11297.0,8.852e-05,1.9647,4.2389,102.96,14.016,33.313,394.39,0.12079,33.886,0.032328,supercritical,Ar,C7440371,argon,150.86,48.9805,13.41,0.07457121551081282,1.9,5.245148579536755,0.0011870532
286.63,258.54,11359.0,8.8035e-05,1.9563,4.2324,102.88,14.021,33.345,395.26,0.11954,33.994,0.032441,supercritical,Ar,C7440371,argon,150.86,48.9805,13.41,0.07457121551081282,1.9,5.2784271291636475,0.0011805493500000003
286.63,260.17,11421.0,8.7557e-05,1.9479,4.2259,102.81,14.027,33.375,396.12,0.11829,34.101,0.032553,supercritical,Ar,C7440371,argon,150.86,48.9805,13.41,0.07457121551081282,1.9,5.311705678790539,0.00117413937
286.63,261.8,11483.0,8.7086e-05,1.9396,4.2195,102.74,14.033,33.405,396.99,0.11705,34.209,0.032666,supercritical,Ar,C7440371,argon,150.86,48.9805,13.41,0.07457121551081282,1.9,5.344984228417432,0.0011678232600000002
286.63,263.43,11544.0,8.6622e-05,1.9313,4.2132,102.67,14.038,33.434,397.86,0.11582,34.317,0.032779,supercritical,Ar,C7440371,argon,150.86,48.9805,13.41,0.07457121551081282,1.9,5.378262778044324,0.00116160102
286.63,265.06,11606.0,8.6165e-05,1.923,4.2069,102.6,14.044,33.462,398.73,0.1146,34.425,0.032892,supercritical,Ar,C7440371,argon,150.86,48.9805,13.41,0.07457121551081282,1.9,5.411541327671216,0.00115547265
286.63,266.69,11667.0,8.5714e-05,1.9148,4.2007,102.53,14.049,33.49,399.6,0.11339,34.533,0.033005,supercritical,Ar,C7440371,argon,150.86,48.9805,13.41,0.07457121551081282,1.9,5.444819877298109,0.00114942474
286.63,268.32,11727.0,8.527e-05,1.9065,4.1945,102.46,14.055,33.517,400.48,0.11219,34.642,0.033118,supercritical,Ar,C7440371,argon,150.86,48.9805,13.41,0.07457121551081282,1.9,5.478098426925,0.0011434707000000002
286.63,269.95,11788.0,8.4832e-05,1.8984,4.1884,102.39,14.06,33.543,401.35,0.11099,34.75,0.033231,supercritical,Ar,C7440371,argon,150.86,48.9805,13.41,0.07457121551081282,1.9,5.511376976551893,0.0011375971200000001
286.63,271.58,11848.0,8.44e-05,1.8902,4.1824,102.32,14.065,33.568,402.23,0.10981,34.859,0.033345,supercritical,Ar,C7440371,argon,150.86,48.9805,13.41,0.07457121551081282,1.9,5.5446555261787855,0.0011318040000000001
286.63,273.21,11908.0,8.3975e-05,1.8821,4.1764,102.25,14.071,33.593,403.12,0.10863,34.968,0.033458,supercritical,Ar,C7440371,argon,150.86,48.9805,13.41,0.07457121551081282,1.9,5.577934075805677,0.00112610475
286.63,274.84,11968.0,8.3555e-05,1.8741,4.1705,102.18,14.076,33.618,404.0,0.10747,35.078,0.033571,supercritical,Ar,C7440371,argon,150.86,48.9805,13.41,0.07457121551081282,1.9,5.61121262543257,0.0011204725500000001
286.63,276.47,12028.0,8.3141e-05,1.866,4.1646,102.11,14.081,33.641,404.88,0.10631,35.187,0.033684,supercritical,Ar,C7440371,argon,150.86,48.9805,13.41,0.07457121551081282,1.9,5.644491175059463,0.00111492081
286.63,278.1,12087.0,8.2733e-05,1.858,4.1588,102.04,14.087,33.664,405.77,0.10516,35.297,0.033797,supercritical,Ar,C7440371,argon,150.86,48.9805,13.41,0.07457121551081282,1.9,5.677769724686355,0.00110944953
286.63,279.73,12146.0,8.233e-05,1.8501,4.1531,101.98,14.092,33.687,406.66,0.10402,35.407,0.03391,supercritical,Ar,C7440371,argon,150.86,48.9805,13.41,0.07457121551081282,1.9,5.711048274313248,0.0011040453000000002
286.63,281.36,12205.0,8.1933e-05,1.8421,4.1474,101.91,14.097,33.709,407.55,0.10289,35.516,0.034023,supercritical,Ar,C7440371,argon,150.86,48.9805,13.41,0.07457121551081282,1.9,5.74432682394014,0.0010987215300000003
286.63,282.99,12264.0,8.1541e-05,1.8342,4.1418,101.84,14.102,33.73,408.44,0.10176,35.627,0.034137,supercritical,Ar,C7440371,argon,150.86,48.9805,13.41,0.07457121551081282,1.9,5.777605373567032,0.0010934648100000002
286.63,284.62,12322.0,8.1155e-05,1.8264,4.1362,101.78,14.107,33.75,409.34,0.10065,35.737,0.03425,supercritical,Ar,C7440371,argon,150.86,48.9805,13.41,0.07457121551081282,1.9,5.810883923193924,0.0010882885500000002
286.63,286.25,12380.0,8.0774e-05,1.8185,4.1307,101.71,14.113,33.77,410.23,0.099543,35.847,0.034363,supercritical,Ar,C7440371,argon,150.86,48.9805,13.41,0.07457121551081282,1.9,5.844162472820816,0.00108317934
286.63,287.88,12438.0,8.0398e-05,1.8108,4.1252,101.65,14.118,33.79,411.13,0.098446,35.958,0.034476,supercritical,Ar,C7440371,argon,150.86,48.9805,13.41,0.07457121551081282,1.9,5.877441022447709,0.00107813718
286.63,289.51,12496.0,8.0027e-05,1.803,4.1199,101.58,14.123,33.809,412.03,0.097357,36.068,0.034589,supercritical,Ar,C7440371,argon,150.86,48.9805,13.41,0.07457121551081282,1.9,5.910719572074601,0.00107316207
286.63,291.14,12553.0,7.9661e-05,1.7953,4.1145,101.52,14.128,33.827,412.93,0.096276,36.179,0.034702,supercritical,Ar,C7440371,argon,150.86,48.9805,13.41,0.07457121551081282,1.9,5.943998121701493,0.00106825401
286.63,292.77,12610.0,7.93e-05,1.7876,4.1092,101.46,14.133,33.845,413.83,0.095204,36.29,0.034815,supercritical,Ar,C7440371,argon,150.86,48.9805,13.41,0.07457121551081282,1.9,5.977276671328386,0.0010634130000000002
286.63,294.4,12667.0,7.8943e-05,1.7799,4.104,101.39,14.138,33.862,414.73,0.09414,36.401,0.034928,supercritical,Ar,C7440371,argon,150.86,48.9805,13.41,0.07457121551081282,1.9,6.010555220955278,0.0010586256300000002
286.63,296.03,12724.0,7.8592e-05,1.7723,4.0988,101.33,14.143,33.878,415.64,0.093084,36.512,0.035041,supercritical,Ar,C7440371,argon,150.86,48.9805,13.41,0.07457121551081282,1.9,6.04383377058217,0.00105391872
286.63,297.66,12780.0,7.8244e-05,1.7647,4.0937,101.27,14.148,33.894,416.54,0.092037,36.624,0.035154,supercritical,Ar,C7440371,argon,150.86,48.9805,13.41,0.07457121551081282,1.9,6.077112320209063,0.0010492520400000001
286.63,299.29,12837.0,7.7902e-05,1.7572,4.0887,101.21,14.153,33.91,417.45,0.090998,36.735,0.035267,supercritical,Ar,C7440371,argon,150.86,48.9805,13.41,0.07457121551081282,1.9,6.110390869835956,0.0010446658200000002
286.63,300.92,12893.0,7.7563e-05,1.7496,4.0837,101.14,14.158,33.925,418.35,0.089966,36.846,0.03538,supercritical,Ar,C7440371,argon,150.86,48.9805,13.41,0.07457121551081282,1.9,6.143669419462848,0.00104011983
286.63,302.55,12948.0,7.723e-05,1.7421,4.0787,101.08,14.163,33.939,419.26,0.088943,36.958,0.035493,supercritical,Ar,C7440371,argon,150.86,48.9805,13.41,0.07457121551081282,1.9,6.17694796908974,0.0010356543
286.63,304.18,13004.0,7.69e-05,1.7347,4.0738,101.02,14.168,33.953,420.17,0.087928,37.07,0.035606,supercritical,Ar,C7440371,argon,150.86,48.9805,13.41,0.07457121551081282,1.9,6.210226518716633,0.001031229