Temperature (K),Pressure (bar),Density (mol/m3),Volume (m3/mol),Internal Energy (kJ/mol),Enthalpy (kJ/mol),Entropy (J/mol*K),Cv (J/mol*K),Cp (J/mol*K),Sound Spd. (m/s),Joule-Thomson (K/bar),Viscosity (uPa*s),Therm. Cond. (W/m*K),Phase,substance,substance_id,substance_name,Tc,Pc,rhoc,Vmc,Tr,Pr,Vmr
395.43,672.13,19110.0,5.233e-05,14.415,17.932,62.053,39.996,71.429,671.93,0.0041734,82.37,0.09947,supercritical,CO2,C124389,carbon-dioxide,304.18,73.8,10.6,0.09433962264150944,1.3,9.107452574525746,0.000554698
395.43,674.58,19132.0,5.2269e-05,14.405,17.931,62.019,40.0,71.387,673.33,0.0039257,82.558,0.099644,supercritical,CO2,C124389,carbon-dioxide,304.18,73.8,10.6,0.09433962264150944,1.3,9.140650406504067,0.0005540513999999999
395.43,677.04,19154.0,5.2209e-05,14.396,17.93,61.985,40.004,71.345,674.74,0.0036804,82.744,0.099818,supercritical,CO2,C124389,carbon-dioxide,304.18,73.8,10.6,0.09433962264150944,1.3,9.173983739837398,0.0005534154
395.43,679.5,19175.0,5.215e-05,14.386,17.93,61.951,40.009,71.304,676.14,0.0034374,82.931,0.099991,supercritical,CO2,C124389,carbon-dioxide,304.18,73.8,10.6,0.09433962264150944,1.3,9.207317073170731,0.0005527899999999999
395.43,681.96,19197.0,5.2091e-05,14.377,17.929,61.917,40.013,71.263,677.53,0.0031968,83.117,0.10016,supercritical,CO2,C124389,carbon-dioxide,304.18,73.8,10.6,0.09433962264150944,1.3,9.240650406504066,0.0005521645999999999
395.43,684.42,19219.0,5.2032e-05,14.367,17.929,61.883,40.017,71.222,678.93,0.0029584,83.303,0.10034,supercritical,CO2,C124389,carbon-dioxide,304.18,73.8,10.6,0.09433962264150944,1.3,9.273983739837398,0.0005515391999999999
395.43,686.88,19240.0,5.1974e-05,14.358,17.928,61.849,40.021,71.182,680.32,0.0027222,83.488,0.10051,supercritical,CO2,C124389,carbon-dioxide,304.18,73.8,10.6,0.09433962264150944,1.3,9.307317073170733,0.0005509244
395.43,689.33,19262.0,5.1916e-05,14.349,17.928,61.816,40.026,71.142,681.7,0.0024883,83.673,0.10068,supercritical,CO2,C124389,carbon-dioxide,304.18,73.8,10.6,0.09433962264150944,1.3,9.340514905149053,0.0005503096
395.43,691.79,19283.0,5.1859e-05,14.34,17.927,61.783,40.03,71.103,683.08,0.0022565,83.857,0.10085,supercritical,CO2,C124389,carbon-dioxide,304.18,73.8,10.6,0.09433962264150944,1.3,9.373848238482385,0.0005497054
395.43,694.25,19304.0,5.1802e-05,14.331,17.927,61.749,40.034,71.063,684.46,0.0020269,84.042,0.10102,supercritical,CO2,C124389,carbon-dioxide,304.18,73.8,10.6,0.09433962264150944,1.3,9.407181571815718,0.0005491012
395.43,696.71,19325.0,5.1745e-05,14.321,17.927,61.716,40.038,71.024,685.83,0.0017994,84.226,0.10119,supercritical,CO2,C124389,carbon-dioxide,304.18,73.8,10.6,0.09433962264150944,1.3,9.440514905149053,0.000548497
395.43,699.17,19346.0,5.1689e-05,14.312,17.926,61.683,40.043,70.986,687.2,0.001574,84.409,0.10136,supercritical,CO2,C124389,carbon-dioxide,304.18,73.8,10.6,0.09433962264150944,1.3,9.473848238482384,0.0005479034
395.43,701.63,19367.0,5.1633e-05,14.303,17.926,61.651,40.047,70.948,688.56,0.0013507,84.592,0.10153,supercritical,CO2,C124389,carbon-dioxide,304.18,73.8,10.6,0.09433962264150944,1.3,9.50718157181572,0.0005473097999999999
395.43,704.08,19388.0,5.1578e-05,14.294,17.926,61.618,40.051,70.91,689.93,0.0011294,84.775,0.1017,supercritical,CO2,C124389,carbon-dioxide,304.18,73.8,10.6,0.09433962264150944,1.3,9.54037940379404,0.0005467267999999999
395.43,706.54,19409.0,5.1523e-05,14.285,17.926,61.586,40.055,70.872,691.28,0.00091016,84.958,0.10187,supercritical,CO2,C124389,carbon-dioxide,304.18,73.8,10.6,0.09433962264150944,1.3,9.573712737127371,0.0005461438
395.43,709.0,19430.0,5.1468e-05,14.276,17.925,61.553,40.06,70.834,692.64,0.00069287,85.14,0.10204,supercritical,CO2,C124389,carbon-dioxide,304.18,73.8,10.6,0.09433962264150944,1.3,9.607046070460704,0.0005455608
395.43,711.46,19450.0,5.1414e-05,14.268,17.925,61.521,40.064,70.797,693.99,0.00047754,85.322,0.10221,supercritical,CO2,C124389,carbon-dioxide,304.18,73.8,10.6,0.09433962264150944,1.3,9.64037940379404,0.0005449884
395.43,713.92,19471.0,5.136e-05,14.259,17.925,61.489,40.068,70.761,695.34,0.00026414,85.503,0.10238,supercritical,CO2,C124389,carbon-dioxide,304.18,73.8,10.6,0.09433962264150944,1.3,9.67371273712737,0.000544416
395.43,716.38,19491.0,5.1306e-05,14.25,17.925,61.457,40.073,70.724,696.68,5.2647e-05,85.684,0.10255,supercritical,CO2,C124389,carbon-dioxide,304.18,73.8,10.6,0.09433962264150944,1.3,9.707046070460706,0.0005438436
395.43,718.83,19511.0,5.1253e-05,14.241,17.925,61.425,40.077,70.688,698.02,-0.00015696,85.865,0.10272,supercritical,CO2,C124389,carbon-dioxide,304.18,73.8,10.6,0.09433962264150944,1.3,9.740243902439026,0.0005432817999999999
395.43,721.29,19531.0,5.12e-05,14.232,17.925,61.393,40.081,70.652,699.35,-0.00036471,86.046,0.10288,supercritical,CO2,C124389,carbon-dioxide,304.18,73.8,10.6,0.09433962264150944,1.3,9.773577235772358,0.0005427199999999999
395.43,723.75,19551.0,5.1147e-05,14.224,17.925,61.362,40.086,70.616,700.69,-0.00057063,86.226,0.10305,supercritical,CO2,C124389,carbon-dioxide,304.18,73.8,10.6,0.09433962264150944,1.3,9.80691056910569,0.0005421581999999999
395.43,726.21,19571.0,5.1095e-05,14.215,17.926,61.33,40.09,70.581,702.02,-0.00077474,86.406,0.10322,supercritical,CO2,C124389,carbon-dioxide,304.18,73.8,10.6,0.09433962264150944,1.3,9.840243902439026,0.0005416069999999999
395.43,728.67,19591.0,5.1043e-05,14.206,17.926,61.299,40.094,70.546,703.34,-0.00097706,86.585,0.10338,supercritical,CO2,C124389,carbon-dioxide,304.18,73.8,10.6,0.09433962264150944,1.3,9.873577235772357,0.0005410558
395.43,731.13,19611.0,5.0991e-05,14.198,17.926,61.268,40.099,70.511,704.66,-0.0011776,86.765,0.10355,supercritical,CO2,C124389,carbon-dioxide,304.18,73.8,10.6,0.09433962264150944,1.3,9.906910569105692,0.0005405046
395.43,733.58,19631.0,5.094e-05,14.189,17.926,61.236,40.103,70.477,705.98,-0.0013764,86.944,0.10371,supercritical,CO2,C124389,carbon-dioxide,304.18,73.8,10.6,0.09433962264150944,1.3,9.940108401084013,0.0005399639999999999
395.43,736.04,19651.0,5.0889e-05,14.181,17.926,61.205,40.108,70.443,707.3,-0.0015735,87.122,0.10388,supercritical,CO2,C124389,carbon-dioxide,304.18,73.8,10.6,0.09433962264150944,1.3,9.973441734417344,0.0005394234
395.43,738.5,19670.0,5.0839e-05,14.172,17.927,61.175,40.112,70.409,708.61,-0.0017689,87.301,0.10404,supercritical,CO2,C124389,carbon-dioxide,304.18,73.8,10.6,0.09433962264150944,1.3,10.006775067750677,0.0005388934
395.43,740.96,19690.0,5.0788e-05,14.164,17.927,61.144,40.116,70.375,709.92,-0.0019626,87.479,0.10421,supercritical,CO2,C124389,carbon-dioxide,304.18,73.8,10.6,0.09433962264150944,1.3,10.040108401084012,0.0005383528
395.43,743.42,19709.0,5.0738e-05,14.155,17.927,61.113,40.121,70.341,711.22,-0.0021547,87.656,0.10437,supercritical,CO2,C124389,carbon-dioxide,304.18,73.8,10.6,0.09433962264150944,1.3,10.073441734417344,0.0005378227999999999
395.43,745.88,19728.0,5.0689e-05,14.147,17.928,61.083,40.125,70.308,712.52,-0.0023451,87.834,0.10454,supercritical,CO2,C124389,carbon-dioxide,304.18,73.8,10.6,0.09433962264150944,1.3,10.106775067750679,0.0005373034
395.43,748.33,19748.0,5.0639e-05,14.139,17.928,61.052,40.13,70.275,713.82,-0.002534,88.011,0.1047,supercritical,CO2,C124389,carbon-dioxide,304.18,73.8,10.6,0.09433962264150944,1.3,10.139972899728999,0.0005367734
395.43,750.79,19767.0,5.059e-05,14.13,17.929,61.022,40.134,70.243,715.11,-0.0027212,88.188,0.10486,supercritical,CO2,C124389,carbon-dioxide,304.18,73.8,10.6,0.09433962264150944,1.3,10.17330623306233,0.000536254
395.43,753.25,19786.0,5.0541e-05,14.122,17.929,60.992,40.139,70.21,716.41,-0.0029068,88.364,0.10503,supercritical,CO2,C124389,carbon-dioxide,304.18,73.8,10.6,0.09433962264150944,1.3,10.206639566395664,0.0005357345999999999
395.43,755.71,19805.0,5.0493e-05,14.114,17.93,60.962,40.143,70.178,717.69,-0.0030909,88.541,0.10519,supercritical,CO2,C124389,carbon-dioxide,304.18,73.8,10.6,0.09433962264150944,1.3,10.239972899728999,0.0005352257999999999
395.43,758.17,19824.0,5.0445e-05,14.106,17.93,60.932,40.148,70.146,718.98,-0.0032735,88.717,0.10535,supercritical,CO2,C124389,carbon-dioxide,304.18,73.8,10.6,0.09433962264150944,1.3,10.27330623306233,0.000534717
395.43,760.63,19843.0,5.0397e-05,14.097,17.931,60.902,40.152,70.114,720.26,-0.0034545,88.892,0.10552,supercritical,CO2,C124389,carbon-dioxide,304.18,73.8,10.6,0.09433962264150944,1.3,10.306639566395665,0.0005342082
395.43,763.08,19861.0,5.0349e-05,14.089,17.931,60.872,40.157,70.083,721.54,-0.0036341,89.068,0.10568,supercritical,CO2,C124389,carbon-dioxide,304.18,73.8,10.6,0.09433962264150944,1.3,10.339837398373986,0.0005336994
395.43,765.54,19880.0,5.0302e-05,14.081,17.932,60.842,40.161,70.052,722.81,-0.0038121,89.243,0.10584,supercritical,CO2,C124389,carbon-dioxide,304.18,73.8,10.6,0.09433962264150944,1.3,10.373170731707317,0.0005332011999999999
395.43,768.0,19899.0,5.0255e-05,14.073,17.933,60.813,40.166,70.021,724.08,-0.0039887,89.418,0.106,supercritical,CO2,C124389,carbon-dioxide,304.18,73.8,10.6,0.09433962264150944,1.3,10.40650406504065,0.0005327029999999999
395.43,770.46,19917.0,5.0208e-05,14.065,17.933,60.783,40.17,69.99,725.35,-0.0041639,89.593,0.10616,supercritical,CO2,C124389,carbon-dioxide,304.18,73.8,10.6,0.09433962264150944,1.3,10.439837398373985,0.0005322047999999999
395.43,772.92,19936.0,5.0162e-05,14.057,17.934,60.754,40.175,69.959,726.62,-0.0043376,89.767,0.10632,supercritical,CO2,C124389,carbon-dioxide,304.18,73.8,10.6,0.09433962264150944,1.3,10.473170731707317,0.0005317172
395.43,775.38,19954.0,5.0115e-05,14.049,17.935,60.725,40.179,69.929,727.88,-0.0045099,89.941,0.10648,supercritical,CO2,C124389,carbon-dioxide,304.18,73.8,10.6,0.09433962264150944,1.3,10.506504065040652,0.000531219
395.43,777.83,19972.0,5.0069e-05,14.041,17.936,60.696,40.184,69.899,729.14,-0.0046808,90.115,0.10664,supercritical,CO2,C124389,carbon-dioxide,304.18,73.8,10.6,0.09433962264150944,1.3,10.539701897018972,0.0005307313999999999
395.43,780.29,19991.0,5.0024e-05,14.033,17.936,60.666,40.188,69.869,730.4,-0.0048504,90.288,0.1068,supercritical,CO2,C124389,carbon-dioxide,304.18,73.8,10.6,0.09433962264150944,1.3,10.573035230352303,0.0005302544
395.43,782.75,20009.0,4.9978e-05,14.025,17.937,60.638,40.193,69.839,731.65,-0.0050186,90.462,0.10696,supercritical,CO2,C124389,carbon-dioxide,304.18,73.8,10.6,0.09433962264150944,1.3,10.606368563685637,0.0005297667999999999
395.43,785.21,20027.0,4.9933e-05,14.017,17.938,60.609,40.197,69.81,732.9,-0.0051854,90.635,0.10712,supercritical,CO2,C124389,carbon-dioxide,304.18,73.8,10.6,0.09433962264150944,1.3,10.639701897018972,0.0005292897999999999
395.43,787.67,20045.0,4.9888e-05,14.01,17.939,60.58,40.202,69.781,734.15,-0.0053509,90.807,0.10728,supercritical,CO2,C124389,carbon-dioxide,304.18,73.8,10.6,0.09433962264150944,1.3,10.673035230352303,0.0005288128
395.43,790.12,20063.0,4.9844e-05,14.002,17.94,60.551,40.206,69.752,735.39,-0.0055151,90.98,0.10744,supercritical,CO2,C124389,carbon-dioxide,304.18,73.8,10.6,0.09433962264150944,1.3,10.706233062330623,0.0005283464
395.43,792.58,20081.0,4.9799e-05,13.994,17.941,60.523,40.211,69.723,736.63,-0.005678,91.152,0.1076,supercritical,CO2,C124389,carbon-dioxide,304.18,73.8,10.6,0.09433962264150944,1.3,10.739566395663958,0.0005278694
395.43,795.04,20098.0,4.9755e-05,13.986,17.942,60.494,40.216,69.694,737.87,-0.0058396,91.324,0.10776,supercritical,CO2,C124389,carbon-dioxide,304.18,73.8,10.6,0.09433962264150944,1.3,10.77289972899729,0.000527403
395.43,797.5,20116.0,4.9711e-05,13.979,17.943,60.466,40.22,69.666,739.1,-0.006,91.496,0.10792,supercritical,CO2,C124389,carbon-dioxide,304.18,73.8,10.6,0.09433962264150944,1.3,10.806233062330623,0.0005269366
395.43,799.96,20134.0,4.9667e-05,13.971,17.944,60.438,40.225,69.638,740.33,-0.006159,91.668,0.10807,supercritical,CO2,C124389,carbon-dioxide,304.18,73.8,10.6,0.09433962264150944,1.3,10.839566395663958,0.0005264702
395.43,802.42,20152.0,4.9624e-05,13.963,17.945,60.41,40.229,69.61,741.56,-0.0063169,91.839,0.10823,supercritical,CO2,C124389,carbon-dioxide,304.18,73.8,10.6,0.09433962264150944,1.3,10.87289972899729,0.0005260143999999999
395.43,804.87,20169.0,4.9581e-05,13.956,17.946,60.381,40.234,69.582,742.79,-0.0064735,92.01,0.10839,supercritical,CO2,C124389,carbon-dioxide,304.18,73.8,10.6,0.09433962264150944,1.3,10.90609756097561,0.0005255586
395.43,807.33,20187.0,4.9538e-05,13.948,17.947,60.353,40.239,69.554,744.01,-0.0066289,92.181,0.10855,supercritical,CO2,C124389,carbon-dioxide,304.18,73.8,10.6,0.09433962264150944,1.3,10.939430894308945,0.0005251028
395.43,809.79,20204.0,4.9495e-05,13.94,17.948,60.326,40.243,69.527,745.23,-0.0067831,92.351,0.1087,supercritical,CO2,C124389,carbon-dioxide,304.18,73.8,10.6,0.09433962264150944,1.3,10.972764227642276,0.0005246469999999999
395.43,812.25,20221.0,4.9453e-05,13.933,17.95,60.298,40.248,69.5,746.45,-0.0069362,92.521,0.10886,supercritical,CO2,C124389,carbon-dioxide,304.18,73.8,10.6,0.09433962264150944,1.3,11.00609756097561,0.0005242018
395.43,814.71,20239.0,4.9411e-05,13.925,17.951,60.27,40.252,69.472,747.66,-0.007088,92.692,0.10901,supercritical,CO2,C124389,carbon-dioxide,304.18,73.8,10.6,0.09433962264150944,1.3,11.039430894308945,0.0005237566
395.43,817.17,20256.0,4.9369e-05,13.918,17.952,60.242,40.257,69.446,748.88,-0.0072387,92.861,0.10917,supercritical,CO2,C124389,carbon-dioxide,304.18,73.8,10.6,0.09433962264150944,1.3,11.072764227642276,0.0005233114
395.43,819.62,20273.0,4.9327e-05,13.91,17.953,60.215,40.262,69.419,750.08,-0.0073883,93.031,0.10933,supercritical,CO2,C124389,carbon-dioxide,304.18,73.8,10.6,0.09433962264150944,1.3,11.105962059620596,0.0005228661999999999
395.43,822.08,20290.0,4.9285e-05,13.903,17.955,60.188,40.266,69.392,751.29,-0.0075367,93.2,0.10948,supercritical,CO2,C124389,carbon-dioxide,304.18,73.8,10.6,0.09433962264150944,1.3,11.139295392953931,0.0005224209999999999
395.43,824.54,20307.0,4.9244e-05,13.895,17.956,60.16,40.271,69.366,752.49,-0.007684,93.369,0.10964,supercritical,CO2,C124389,carbon-dioxide,304.18,73.8,10.6,0.09433962264150944,1.3,11.172628726287263,0.0005219863999999999
395.43,827.0,20324.0,4.9203e-05,13.888,17.957,60.133,40.276,69.34,753.69,-0.0078302,93.538,0.10979,supercritical,CO2,C124389,carbon-dioxide,304.18,73.8,10.6,0.09433962264150944,1.3,11.205962059620596,0.0005215518
395.43,829.46,20341.0,4.9162e-05,13.881,17.959,60.106,40.28,69.314,754.89,-0.0079753,93.707,0.10995,supercritical,CO2,C124389,carbon-dioxide,304.18,73.8,10.6,0.09433962264150944,1.3,11.239295392953931,0.0005211171999999999
395.43,831.92,20358.0,4.9121e-05,13.873,17.96,60.079,40.285,69.288,756.08,-0.0081193,93.876,0.1101,supercritical,CO2,C124389,carbon-dioxide,304.18,73.8,10.6,0.09433962264150944,1.3,11.272628726287262,0.0005206826
395.43,834.37,20374.0,4.9081e-05,13.866,17.961,60.052,40.29,69.263,757.28,-0.0082622,94.044,0.11026,supercritical,CO2,C124389,carbon-dioxide,304.18,73.8,10.6,0.09433962264150944,1.3,11.305826558265583,0.0005202586
395.43,836.83,20391.0,4.9041e-05,13.859,17.963,60.025,40.294,69.237,758.47,-0.0084041,94.212,0.11041,supercritical,CO2,C124389,carbon-dioxide,304.18,73.8,10.6,0.09433962264150944,1.3,11.339159891598918,0.0005198345999999999
395.43,839.29,20408.0,4.9001e-05,13.852,17.964,59.998,40.299,69.212,759.65,-0.008545,94.38,0.11056,supercritical,CO2,C124389,carbon-dioxide,304.18,73.8,10.6,0.09433962264150944,1.3,11.37249322493225,0.0005194106
395.43,841.75,20424.0,4.8961e-05,13.844,17.966,59.971,40.304,69.187,760.84,-0.0086848,94.547,0.11072,supercritical,CO2,C124389,carbon-dioxide,304.18,73.8,10.6,0.09433962264150944,1.3,11.405826558265582,0.0005189866
395.43,844.21,20441.0,4.8921e-05,13.837,17.967,59.945,40.308,69.162,762.02,-0.0088235,94.715,0.11087,supercritical,CO2,C124389,carbon-dioxide,304.18,73.8,10.6,0.09433962264150944,1.3,11.439159891598917,0.0005185626
395.43,846.67,20457.0,4.8882e-05,13.83,17.969,59.918,40.313,69.137,763.19,-0.0089613,94.882,0.11102,supercritical,CO2,C124389,carbon-dioxide,304.18,73.8,10.6,0.09433962264150944,1.3,11.472493224932249,0.0005181491999999999
395.43,849.12,20474.0,4.8843e-05,13.823,17.97,59.891,40.318,69.113,764.37,-0.009098,95.049,0.11118,supercritical,CO2,C124389,carbon-dioxide,304.18,73.8,10.6,0.09433962264150944,1.3,11.50569105691057,0.0005177357999999999
395.43,851.58,20490.0,4.8804e-05,13.816,17.972,59.865,40.322,69.088,765.54,-0.0092338,95.215,0.11133,supercritical,CO2,C124389,carbon-dioxide,304.18,73.8,10.6,0.09433962264150944,1.3,11.539024390243904,0.0005173224
395.43,854.04,20507.0,4.8765e-05,13.809,17.973,59.839,40.327,69.064,766.71,-0.0093686,95.382,0.11148,supercritical,CO2,C124389,carbon-dioxide,304.18,73.8,10.6,0.09433962264150944,1.3,11.572357723577236,0.000516909
395.43,856.5,20523.0,4.8726e-05,13.801,17.975,59.812,40.332,69.04,767.88,-0.0095024,95.548,0.11163,supercritical,CO2,C124389,carbon-dioxide,304.18,73.8,10.6,0.09433962264150944,1.3,11.605691056910569,0.0005164955999999999
395.43,858.96,20539.0,4.8688e-05,13.794,17.977,59.786,40.337,69.016,769.05,-0.0096352,95.714,0.11179,supercritical,CO2,C124389,carbon-dioxide,304.18,73.8,10.6,0.09433962264150944,1.3,11.639024390243904,0.0005160928
395.43,861.42,20555.0,4.865e-05,13.787,17.978,59.76,40.341,68.992,770.21,-0.0097671,95.88,0.11194,supercritical,CO2,C124389,carbon-dioxide,304.18,73.8,10.6,0.09433962264150944,1.3,11.672357723577235,0.00051569
395.43,863.87,20571.0,4.8612e-05,13.78,17.98,59.734,40.346,68.969,771.37,-0.0098981,96.046,0.11209,supercritical,CO2,C124389,carbon-dioxide,304.18,73.8,10.6,0.09433962264150944,1.3,11.705555555555556,0.0005152872
395.43,866.33,20587.0,4.8574e-05,13.773,17.982,59.708,40.351,68.945,772.53,-0.010028,96.211,0.11224,supercritical,CO2,C124389,carbon-dioxide,304.18,73.8,10.6,0.09433962264150944,1.3,11.73888888888889,0.0005148844
395.43,868.79,20603.0,4.8536e-05,13.766,17.983,59.682,40.356,68.922,773.68,-0.010157,96.377,0.11239,supercritical,CO2,C124389,carbon-dioxide,304.18,73.8,10.6,0.09433962264150944,1.3,11.772222222222222,0.0005144815999999999
395.43,871.25,20619.0,4.8499e-05,13.759,17.985,59.657,40.36,68.899,774.83,-0.010285,96.542,0.11254,supercritical,CO2,C124389,carbon-dioxide,304.18,73.8,10.6,0.09433962264150944,1.3,11.805555555555555,0.0005140893999999999
395.43,873.71,20635.0,4.8461e-05,13.753,17.987,59.631,40.365,68.876,775.98,-0.010413,96.707,0.11269,supercritical,CO2,C124389,carbon-dioxide,304.18,73.8,10.6,0.09433962264150944,1.3,11.83888888888889,0.0005136866
395.43,876.17,20651.0,4.8424e-05,13.746,17.988,59.605,40.37,68.853,777.13,-0.010539,96.871,0.11284,supercritical,CO2,C124389,carbon-dioxide,304.18,73.8,10.6,0.09433962264150944,1.3,11.872222222222222,0.0005132944
395.43,878.62,20666.0,4.8387e-05,13.739,17.99,59.58,40.375,68.83,778.27,-0.010665,97.036,0.11299,supercritical,CO2,C124389,carbon-dioxide,304.18,73.8,10.6,0.09433962264150944,1.3,11.905420054200542,0.0005129022
395.43,881.08,20682.0,4.8351e-05,13.732,17.992,59.554,40.379,68.808,779.42,-0.010789,97.2,0.11314,supercritical,CO2,C124389,carbon-dioxide,304.18,73.8,10.6,0.09433962264150944,1.3,11.938753387533877,0.0005125205999999999
395.43,883.54,20698.0,4.8314e-05,13.725,17.994,59.529,40.384,68.785,780.56,-0.010913,97.364,0.11329,supercritical,CO2,C124389,carbon-dioxide,304.18,73.8,10.6,0.09433962264150944,1.3,11.972086720867209,0.0005121284
395.43,886.0,20713.0,4.8278e-05,13.718,17.996,59.503,40.389,68.763,781.69,-0.011036,97.528,0.11344,supercritical,CO2,C124389,carbon-dioxide,304.18,73.8,10.6,0.09433962264150944,1.3,12.005420054200542,0.0005117467999999999
395.43,888.46,20729.0,4.8242e-05,13.712,17.998,59.478,40.394,68.741,782.83,-0.011158,97.692,0.11359,supercritical,CO2,C124389,carbon-dioxide,304.18,73.8,10.6,0.09433962264150944,1.3,12.038753387533877,0.0005113652
395.43,890.92,20744.0,4.8206e-05,13.705,18.0,59.453,40.398,68.719,783.96,-0.011279,97.855,0.11374,supercritical,CO2,C124389,carbon-dioxide,304.18,73.8,10.6,0.09433962264150944,1.3,12.072086720867208,0.0005109836
395.43,893.37,20760.0,4.817e-05,13.698,18.001,59.428,40.403,68.697,785.09,-0.011399,98.019,0.11389,supercritical,CO2,C124389,carbon-dioxide,304.18,73.8,10.6,0.09433962264150944,1.3,12.105284552845529,0.000510602