Temperature (K),Pressure (bar),Density (mol/m3),Volume (m3/mol),Internal Energy (kJ/mol),Enthalpy (kJ/mol),Entropy (J/mol*K),Cv (J/mol*K),Cp (J/mol*K),Sound Spd. (m/s),Joule-Thomson (K/bar),Viscosity (uPa*s),Therm. Cond. (W/m*K),Phase,substance,substance_id,substance_name,Tc,Pc,rhoc,Vmc,Tr,Pr,Vmr
226.29,450.88,22148.0,4.5151e-05,-0.39715,1.6386,88.186,15.529,38.046,556.37,0.00056351,61.088,0.057268,supercritical,Ar,C7440371,argon,150.86,48.9805,13.41,0.07457121551081282,1.5,9.205295985136942,0.0006054749100000001
226.29,452.51,22180.0,4.5086e-05,-0.40157,1.6386,88.153,15.533,38.014,557.43,0.00017536,61.24,0.057386,supercritical,Ar,C7440371,argon,150.86,48.9805,13.41,0.07457121551081282,1.5,9.238574534763835,0.00060460326
226.29,454.14,22212.0,4.5021e-05,-0.40596,1.6386,88.121,15.538,37.983,558.49,-0.0002093,61.392,0.057504,supercritical,Ar,C7440371,argon,150.86,48.9805,13.41,0.07457121551081282,1.5,9.271853084390727,0.0006037316100000001
226.29,455.77,22244.0,4.4956e-05,-0.41033,1.6386,88.089,15.542,37.952,559.55,-0.00059051,61.544,0.057622,supercritical,Ar,C7440371,argon,150.86,48.9805,13.41,0.07457121551081282,1.5,9.305131634017618,0.00060285996
226.29,457.4,22276.0,4.4892e-05,-0.41468,1.6387,88.056,15.546,37.921,560.6,-0.00096833,61.695,0.05774,supercritical,Ar,C7440371,argon,150.86,48.9805,13.41,0.07457121551081282,1.5,9.33841018364451,0.0006020017200000001
226.29,459.03,22307.0,4.4829e-05,-0.41901,1.6388,88.024,15.55,37.89,561.65,-0.0013428,61.847,0.057857,supercritical,Ar,C7440371,argon,150.86,48.9805,13.41,0.07457121551081282,1.5,9.371688733271403,0.0006011568900000001
226.29,460.66,22339.0,4.4765e-05,-0.42332,1.6389,87.993,15.555,37.859,562.7,-0.0017139,61.998,0.057974,supercritical,Ar,C7440371,argon,150.86,48.9805,13.41,0.07457121551081282,1.5,9.404967282898298,0.0006002986500000001
226.29,462.29,22370.0,4.4703e-05,-0.4276,1.639,87.961,15.559,37.829,563.75,-0.0020818,62.148,0.058091,supercritical,Ar,C7440371,argon,150.86,48.9805,13.41,0.07457121551081282,1.5,9.438245832525189,0.0005994672300000001
226.29,463.92,22401.0,4.4641e-05,-0.43186,1.6391,87.929,15.563,37.799,564.79,-0.0024464,62.299,0.058208,supercritical,Ar,C7440371,argon,150.86,48.9805,13.41,0.07457121551081282,1.5,9.471524382152081,0.00059863581
226.29,465.55,22432.0,4.4579e-05,-0.43611,1.6393,87.898,15.567,37.769,565.83,-0.0028079,62.449,0.058324,supercritical,Ar,C7440371,argon,150.86,48.9805,13.41,0.07457121551081282,1.5,9.504802931778974,0.00059780439
226.29,467.18,22463.0,4.4518e-05,-0.44033,1.6395,87.867,15.572,37.739,566.87,-0.0031662,62.599,0.05844,supercritical,Ar,C7440371,argon,150.86,48.9805,13.41,0.07457121551081282,1.5,9.538081481405866,0.0005969863800000001
226.29,468.81,22494.0,4.4457e-05,-0.44453,1.6397,87.835,15.576,37.709,567.9,-0.0035214,62.749,0.058556,supercritical,Ar,C7440371,argon,150.86,48.9805,13.41,0.07457121551081282,1.5,9.571360031032759,0.00059616837
226.29,470.44,22524.0,4.4397e-05,-0.44871,1.6399,87.804,15.58,37.68,568.94,-0.0038735,62.899,0.058672,supercritical,Ar,C7440371,argon,150.86,48.9805,13.41,0.07457121551081282,1.5,9.60463858065965,0.0005953637700000001
226.29,472.07,22555.0,4.4337e-05,-0.45288,1.6401,87.774,15.585,37.651,569.96,-0.0042226,63.048,0.058787,supercritical,Ar,C7440371,argon,150.86,48.9805,13.41,0.07457121551081282,1.5,9.637917130286542,0.00059455917
226.29,473.7,22585.0,4.4277e-05,-0.45702,1.6404,87.743,15.589,37.622,570.99,-0.0045686,63.197,0.058902,supercritical,Ar,C7440371,argon,150.86,48.9805,13.41,0.07457121551081282,1.5,9.671195679913435,0.00059375457
226.29,475.33,22615.0,4.4218e-05,-0.46114,1.6407,87.712,15.593,37.593,572.02,-0.0049118,63.346,0.059017,supercritical,Ar,C7440371,argon,150.86,48.9805,13.41,0.07457121551081282,1.5,9.704474229540327,0.0005929633800000001
226.29,476.96,22645.0,4.416e-05,-0.46524,1.641,87.682,15.597,37.564,573.04,-0.005252,63.495,0.059132,supercritical,Ar,C7440371,argon,150.86,48.9805,13.41,0.07457121551081282,1.5,9.73775277916722,0.0005921856
226.29,478.59,22675.0,4.4102e-05,-0.46933,1.6413,87.652,15.602,37.536,574.05,-0.0055892,63.643,0.059247,supercritical,Ar,C7440371,argon,150.86,48.9805,13.41,0.07457121551081282,1.5,9.77103132879411,0.00059140782
226.29,480.22,22705.0,4.4044e-05,-0.47339,1.6417,87.621,15.606,37.508,575.07,-0.0059237,63.791,0.059361,supercritical,Ar,C7440371,argon,150.86,48.9805,13.41,0.07457121551081282,1.5,9.804309878421005,0.00059063004
226.29,481.85,22734.0,4.3987e-05,-0.47744,1.6421,87.591,15.61,37.48,576.08,-0.0062553,63.939,0.059475,supercritical,Ar,C7440371,argon,150.86,48.9805,13.41,0.07457121551081282,1.5,9.837588428047898,0.00058986567
226.29,483.48,22764.0,4.393e-05,-0.48146,1.6425,87.561,15.615,37.452,577.09,-0.0065841,64.087,0.059589,supercritical,Ar,C7440371,argon,150.86,48.9805,13.41,0.07457121551081282,1.5,9.870866977674789,0.0005891013000000001
226.29,485.11,22793.0,4.3873e-05,-0.48547,1.6429,87.532,15.619,37.424,578.1,-0.0069102,64.235,0.059702,supercritical,Ar,C7440371,argon,150.86,48.9805,13.41,0.07457121551081282,1.5,9.904145527301681,0.00058833693
226.29,486.74,22822.0,4.3817e-05,-0.48946,1.6433,87.502,15.623,37.397,579.11,-0.0072336,64.382,0.059816,supercritical,Ar,C7440371,argon,150.86,48.9805,13.41,0.07457121551081282,1.5,9.937424076928574,0.00058758597
226.29,488.37,22851.0,4.3761e-05,-0.49343,1.6437,87.472,15.627,37.369,580.11,-0.0075542,64.529,0.059929,supercritical,Ar,C7440371,argon,150.86,48.9805,13.41,0.07457121551081282,1.5,9.970702626555466,0.0005868350100000001
226.29,490.0,22880.0,4.3706e-05,-0.49738,1.6442,87.443,15.632,37.342,581.11,-0.0078723,64.676,0.060042,supercritical,Ar,C7440371,argon,150.86,48.9805,13.41,0.07457121551081282,1.5,10.003981176182359,0.0005860974600000001
226.29,491.63,22909.0,4.3651e-05,-0.50131,1.6447,87.414,15.636,37.315,582.11,-0.0081876,64.822,0.060155,supercritical,Ar,C7440371,argon,150.86,48.9805,13.41,0.07457121551081282,1.5,10.037259725809252,0.0005853599100000001
226.29,493.26,22938.0,4.3597e-05,-0.50523,1.6452,87.384,15.64,37.288,583.1,-0.0085004,64.969,0.060268,supercritical,Ar,C7440371,argon,150.86,48.9805,13.41,0.07457121551081282,1.5,10.070538275436142,0.0005846357700000001
226.29,494.89,22966.0,4.3542e-05,-0.50913,1.6457,87.355,15.645,37.262,584.09,-0.0088106,65.115,0.06038,supercritical,Ar,C7440371,argon,150.86,48.9805,13.41,0.07457121551081282,1.5,10.103816825063035,0.00058389822
226.29,496.52,22995.0,4.3489e-05,-0.51301,1.6463,87.326,15.649,37.235,585.08,-0.0091183,65.261,0.060492,supercritical,Ar,C7440371,argon,150.86,48.9805,13.41,0.07457121551081282,1.5,10.137095374689927,0.0005831874900000001
226.29,498.15,23023.0,4.3435e-05,-0.51687,1.6468,87.298,15.653,37.209,586.07,-0.0094235,65.407,0.060604,supercritical,Ar,C7440371,argon,150.86,48.9805,13.41,0.07457121551081282,1.5,10.17037392431682,0.0005824633500000001
226.29,499.78,23051.0,4.3382e-05,-0.52072,1.6474,87.269,15.657,37.183,587.05,-0.0097262,65.552,0.060716,supercritical,Ar,C7440371,argon,150.86,48.9805,13.41,0.07457121551081282,1.5,10.203652473943713,0.0005817526200000001
226.29,501.41,23079.0,4.3329e-05,-0.52455,1.648,87.24,15.662,37.157,588.04,-0.010026,65.697,0.060828,supercritical,Ar,C7440371,argon,150.86,48.9805,13.41,0.07457121551081282,1.5,10.236931023570605,0.00058104189
226.29,503.04,23107.0,4.3277e-05,-0.52836,1.6486,87.212,15.666,37.131,589.02,-0.010324,65.842,0.060939,supercritical,Ar,C7440371,argon,150.86,48.9805,13.41,0.07457121551081282,1.5,10.270209573197498,0.00058034457
226.29,504.67,23135.0,4.3225e-05,-0.53215,1.6493,87.183,15.67,37.106,589.99,-0.01062,65.987,0.06105,supercritical,Ar,C7440371,argon,150.86,48.9805,13.41,0.07457121551081282,1.5,10.30348812282439,0.0005796472500000001
226.29,506.3,23163.0,4.3173e-05,-0.53593,1.6499,87.155,15.675,37.08,590.97,-0.010913,66.132,0.061161,supercritical,Ar,C7440371,argon,150.86,48.9805,13.41,0.07457121551081282,1.5,10.336766672451281,0.0005789499300000001
226.29,507.93,23190.0,4.3122e-05,-0.53969,1.6506,87.127,15.679,37.055,591.94,-0.011204,66.276,0.061272,supercritical,Ar,C7440371,argon,150.86,48.9805,13.41,0.07457121551081282,1.5,10.370045222078174,0.00057826602
226.29,509.56,23218.0,4.3071e-05,-0.54344,1.6513,87.099,15.683,37.03,592.91,-0.011492,66.42,0.061383,supercritical,Ar,C7440371,argon,150.86,48.9805,13.41,0.07457121551081282,1.5,10.403323771705066,0.0005775821100000001
226.29,511.19,23245.0,4.302e-05,-0.54717,1.652,87.071,15.687,37.005,593.88,-0.011778,66.564,0.061493,supercritical,Ar,C7440371,argon,150.86,48.9805,13.41,0.07457121551081282,1.5,10.436602321331959,0.0005768982
226.29,512.82,23272.0,4.297e-05,-0.55088,1.6527,87.043,15.692,36.98,594.84,-0.012062,66.708,0.061604,supercritical,Ar,C7440371,argon,150.86,48.9805,13.41,0.07457121551081282,1.5,10.469880870958852,0.0005762277
226.29,514.45,23299.0,4.292e-05,-0.55457,1.6534,87.016,15.696,36.955,595.8,-0.012344,66.851,0.061714,supercritical,Ar,C7440371,argon,150.86,48.9805,13.41,0.07457121551081282,1.5,10.503159420585744,0.0005755572
226.29,516.08,23326.0,4.287e-05,-0.55825,1.6542,86.988,15.7,36.931,596.76,-0.012623,66.994,0.061823,supercritical,Ar,C7440371,argon,150.86,48.9805,13.41,0.07457121551081282,1.5,10.536437970212637,0.0005748867000000001
226.29,517.71,23353.0,4.2821e-05,-0.56192,1.655,86.961,15.705,36.906,597.72,-0.0129,67.138,0.061933,supercritical,Ar,C7440371,argon,150.86,48.9805,13.41,0.07457121551081282,1.5,10.56971651983953,0.00057422961
226.29,519.34,23380.0,4.2772e-05,-0.56556,1.6557,86.933,15.709,36.882,598.68,-0.013175,67.28,0.062043,supercritical,Ar,C7440371,argon,150.86,48.9805,13.41,0.07457121551081282,1.5,10.602995069466422,0.0005735725200000001
226.29,520.97,23407.0,4.2723e-05,-0.5692,1.6565,86.906,15.713,36.858,599.63,-0.013448,67.423,0.062152,supercritical,Ar,C7440371,argon,150.86,48.9805,13.41,0.07457121551081282,1.5,10.636273619093313,0.00057291543
226.29,522.6,23433.0,4.2674e-05,-0.57281,1.6574,86.879,15.717,36.834,600.58,-0.013719,67.565,0.062261,supercritical,Ar,C7440371,argon,150.86,48.9805,13.41,0.07457121551081282,1.5,10.669552168720205,0.00057225834
226.29,524.23,23460.0,4.2626e-05,-0.57642,1.6582,86.852,15.722,36.81,601.53,-0.013988,67.707,0.06237,supercritical,Ar,C7440371,argon,150.86,48.9805,13.41,0.07457121551081282,1.5,10.702830718347098,0.0005716146600000001
226.29,525.86,23486.0,4.2579e-05,-0.58,1.659,86.825,15.726,36.787,602.48,-0.014255,67.849,0.062479,supercritical,Ar,C7440371,argon,150.86,48.9805,13.41,0.07457121551081282,1.5,10.73610926797399,0.00057098439
226.29,527.49,23512.0,4.2531e-05,-0.58357,1.6599,86.798,15.73,36.763,603.42,-0.014519,67.991,0.062588,supercritical,Ar,C7440371,argon,150.86,48.9805,13.41,0.07457121551081282,1.5,10.769387817600883,0.0005703407100000001
226.29,529.12,23538.0,4.2484e-05,-0.58713,1.6608,86.771,15.734,36.74,604.36,-0.014782,68.133,0.062696,supercritical,Ar,C7440371,argon,150.86,48.9805,13.41,0.07457121551081282,1.5,10.802666367227774,0.00056971044
226.29,530.75,23564.0,4.2437e-05,-0.59067,1.6617,86.745,15.739,36.717,605.3,-0.015042,68.274,0.062804,supercritical,Ar,C7440371,argon,150.86,48.9805,13.41,0.07457121551081282,1.5,10.835944916854666,0.0005690801700000001
226.29,532.38,23590.0,4.239e-05,-0.5942,1.6626,86.718,15.743,36.694,606.24,-0.015301,68.415,0.062913,supercritical,Ar,C7440371,argon,150.86,48.9805,13.41,0.07457121551081282,1.5,10.869223466481559,0.0005684499
226.29,534.01,23616.0,4.2344e-05,-0.59771,1.6635,86.692,15.747,36.671,607.17,-0.015558,68.556,0.06302,supercritical,Ar,C7440371,argon,150.86,48.9805,13.41,0.07457121551081282,1.5,10.902502016108452,0.0005678330400000001
226.29,535.64,23642.0,4.2298e-05,-0.6012,1.6644,86.665,15.752,36.648,608.11,-0.015812,68.696,0.063128,supercritical,Ar,C7440371,argon,150.86,48.9805,13.41,0.07457121551081282,1.5,10.935780565735344,0.0005672161800000001
226.29,537.27,23668.0,4.2252e-05,-0.60469,1.6654,86.639,15.756,36.626,609.04,-0.016065,68.837,0.063236,supercritical,Ar,C7440371,argon,150.86,48.9805,13.41,0.07457121551081282,1.5,10.969059115362235,0.0005665993200000001
226.29,538.9,23693.0,4.2206e-05,-0.60816,1.6664,86.613,15.76,36.603,609.96,-0.016316,68.977,0.063343,supercritical,Ar,C7440371,argon,150.86,48.9805,13.41,0.07457121551081282,1.5,11.002337664989128,0.00056598246
226.29,540.53,23718.0,4.2161e-05,-0.61161,1.6673,86.587,15.764,36.581,610.89,-0.016565,69.117,0.063451,supercritical,Ar,C7440371,argon,150.86,48.9805,13.41,0.07457121551081282,1.5,11.03561621461602,0.00056537901
226.29,542.16,23744.0,4.2116e-05,-0.61505,1.6683,86.561,15.769,36.559,611.81,-0.016812,69.257,0.063558,supercritical,Ar,C7440371,argon,150.86,48.9805,13.41,0.07457121551081282,1.5,11.068894764242913,0.00056477556
226.29,543.79,23769.0,4.2072e-05,-0.61847,1.6693,86.535,15.773,36.536,612.73,-0.017058,69.396,0.063665,supercritical,Ar,C7440371,argon,150.86,48.9805,13.41,0.07457121551081282,1.5,11.102173313869805,0.00056418552
226.29,545.42,23794.0,4.2027e-05,-0.62189,1.6704,86.509,15.777,36.514,613.65,-0.017301,69.536,0.063771,supercritical,Ar,C7440371,argon,150.86,48.9805,13.41,0.07457121551081282,1.5,11.135451863496696,0.0005635820700000001
226.29,547.05,23819.0,4.1983e-05,-0.62528,1.6714,86.484,15.781,36.493,614.57,-0.017543,69.675,0.063878,supercritical,Ar,C7440371,argon,150.86,48.9805,13.41,0.07457121551081282,1.5,11.168730413123589,0.0005629920300000001
226.29,548.68,23844.0,4.1939e-05,-0.62867,1.6724,86.458,15.786,36.471,615.49,-0.017783,69.814,0.063984,supercritical,Ar,C7440371,argon,150.86,48.9805,13.41,0.07457121551081282,1.5,11.202008962750481,0.0005624019900000001
226.29,550.31,23869.0,4.1895e-05,-0.63204,1.6735,86.433,15.79,36.449,616.4,-0.018021,69.953,0.064091,supercritical,Ar,C7440371,argon,150.86,48.9805,13.41,0.07457121551081282,1.5,11.235287512377374,0.0005618119500000001
226.29,551.94,23894.0,4.1852e-05,-0.6354,1.6746,86.407,15.794,36.428,617.31,-0.018257,70.091,0.064197,supercritical,Ar,C7440371,argon,150.86,48.9805,13.41,0.07457121551081282,1.5,11.268566062004268,0.00056123532
226.29,553.57,23918.0,4.1809e-05,-0.63874,1.6757,86.382,15.798,36.407,618.22,-0.018492,70.229,0.064303,supercritical,Ar,C7440371,argon,150.86,48.9805,13.41,0.07457121551081282,1.5,11.30184461163116,0.0005606586900000001
226.29,555.2,23943.0,4.1766e-05,-0.64207,1.6768,86.357,15.803,36.386,619.12,-0.018725,70.367,0.064409,supercritical,Ar,C7440371,argon,150.86,48.9805,13.41,0.07457121551081282,1.5,11.335123161258053,0.00056008206
226.29,556.83,23967.0,4.1723e-05,-0.64539,1.6779,86.332,15.807,36.365,620.03,-0.018956,70.505,0.064514,supercritical,Ar,C7440371,argon,150.86,48.9805,13.41,0.07457121551081282,1.5,11.368401710884944,0.0005595054300000001
226.29,558.46,23992.0,4.1681e-05,-0.64869,1.679,86.306,15.811,36.344,620.93,-0.019186,70.643,0.06462,supercritical,Ar,C7440371,argon,150.86,48.9805,13.41,0.07457121551081282,1.5,11.401680260511837,0.0005589422100000001
226.29,560.09,24016.0,4.1639e-05,-0.65198,1.6802,86.282,15.815,36.323,621.83,-0.019414,70.781,0.064725,supercritical,Ar,C7440371,argon,150.86,48.9805,13.41,0.07457121551081282,1.5,11.43495881013873,0.0005583789900000001
226.29,561.72,24040.0,4.1597e-05,-0.65526,1.6813,86.257,15.82,36.302,622.73,-0.01964,70.918,0.06483,supercritical,Ar,C7440371,argon,150.86,48.9805,13.41,0.07457121551081282,1.5,11.468237359765622,0.0005578157700000001
226.29,563.35,24064.0,4.1555e-05,-0.65852,1.6825,86.232,15.824,36.282,623.63,-0.019865,71.055,0.064935,supercritical,Ar,C7440371,argon,150.86,48.9805,13.41,0.07457121551081282,1.5,11.501515909392515,0.00055725255
226.29,564.98,24088.0,4.1514e-05,-0.66178,1.6837,86.207,15.828,36.261,624.52,-0.020088,71.192,0.06504,supercritical,Ar,C7440371,argon,150.86,48.9805,13.41,0.07457121551081282,1.5,11.534794459019405,0.0005567027400000001
226.29,566.61,24112.0,4.1473e-05,-0.66502,1.6849,86.183,15.832,36.241,625.41,-0.020309,71.328,0.065145,supercritical,Ar,C7440371,argon,150.86,48.9805,13.41,0.07457121551081282,1.5,11.568073008646298,0.00055615293
226.29,568.24,24136.0,4.1432e-05,-0.66824,1.6861,86.158,15.837,36.221,626.3,-0.020529,71.465,0.06525,supercritical,Ar,C7440371,argon,150.86,48.9805,13.41,0.07457121551081282,1.5,11.60135155827319,0.0005556031200000001
226.29,569.87,24160.0,4.1391e-05,-0.67146,1.6873,86.134,15.841,36.201,627.19,-0.020748,71.601,0.065354,supercritical,Ar,C7440371,argon,150.86,48.9805,13.41,0.07457121551081282,1.5,11.634630107900083,0.00055505331
226.29,571.5,24183.0,4.1351e-05,-0.67466,1.6885,86.109,15.845,36.181,628.08,-0.020965,71.737,0.065458,supercritical,Ar,C7440371,argon,150.86,48.9805,13.41,0.07457121551081282,1.5,11.667908657526976,0.0005545169100000001
226.29,573.13,24207.0,4.131e-05,-0.67785,1.6898,86.085,15.849,36.161,628.96,-0.02118,71.873,0.065563,supercritical,Ar,C7440371,argon,150.86,48.9805,13.41,0.07457121551081282,1.5,11.701187207153868,0.0005539671000000001
226.29,574.76,24231.0,4.127e-05,-0.68103,1.691,86.061,15.854,36.141,629.84,-0.021394,72.009,0.065667,supercritical,Ar,C7440371,argon,150.86,48.9805,13.41,0.07457121551081282,1.5,11.734465756780759,0.0005534307000000001
226.29,576.39,24254.0,4.123e-05,-0.68419,1.6923,86.037,15.858,36.121,630.72,-0.021606,72.144,0.06577,supercritical,Ar,C7440371,argon,150.86,48.9805,13.41,0.07457121551081282,1.5,11.767744306407652,0.0005528943000000001
226.29,578.02,24277.0,4.1191e-05,-0.68734,1.6936,86.013,15.862,36.102,631.6,-0.021817,72.279,0.065874,supercritical,Ar,C7440371,argon,150.86,48.9805,13.41,0.07457121551081282,1.5,11.801022856034544,0.00055237131
226.29,579.65,24300.0,4.1151e-05,-0.69049,1.6949,85.989,15.866,36.083,632.48,-0.022026,72.415,0.065978,supercritical,Ar,C7440371,argon,150.86,48.9805,13.41,0.07457121551081282,1.5,11.834301405661437,0.00055183491
226.29,581.28,24324.0,4.1112e-05,-0.69362,1.6962,85.965,15.87,36.063,633.35,-0.022234,72.549,0.066081,supercritical,Ar,C7440371,argon,150.86,48.9805,13.41,0.07457121551081282,1.5,11.86757995528833,0.0005513119200000001
226.29,582.91,24347.0,4.1073e-05,-0.69673,1.6975,85.941,15.875,36.044,634.22,-0.02244,72.684,0.066184,supercritical,Ar,C7440371,argon,150.86,48.9805,13.41,0.07457121551081282,1.5,11.90085850491522,0.00055078893
226.29,584.54,24370.0,4.1035e-05,-0.69984,1.6988,85.917,15.879,36.025,635.09,-0.022645,72.819,0.066288,supercritical,Ar,C7440371,argon,150.86,48.9805,13.41,0.07457121551081282,1.5,11.934137054542113,0.0005502793500000001
226.29,586.17,24393.0,4.0996e-05,-0.70293,1.7001,85.894,15.883,36.006,635.96,-0.022849,72.953,0.066391,supercritical,Ar,C7440371,argon,150.86,48.9805,13.41,0.07457121551081282,1.5,11.967415604169005,0.0005497563600000001
226.29,587.8,24415.0,4.0958e-05,-0.70601,1.7015,85.87,15.887,35.987,636.83,-0.023051,73.087,0.066494,supercritical,Ar,C7440371,argon,150.86,48.9805,13.41,0.07457121551081282,1.5,12.000694153795898,0.0005492467800000001
226.29,589.43,24438.0,4.092e-05,-0.70909,1.7028,85.847,15.892,35.969,637.69,-0.023252,73.221,0.066596,supercritical,Ar,C7440371,argon,150.86,48.9805,13.41,0.07457121551081282,1.5,12.03397270342279,0.0005487372000000001
226.29,591.06,24461.0,4.0882e-05,-0.71215,1.7042,85.823,15.896,35.95,638.55,-0.023451,73.354,0.066699,supercritical,Ar,C7440371,argon,150.86,48.9805,13.41,0.07457121551081282,1.5,12.067251253049681,0.00054822762
226.29,592.69,24483.0,4.0844e-05,-0.71519,1.7056,85.8,15.9,35.931,639.41,-0.02365,73.488,0.066801,supercritical,Ar,C7440371,argon,150.86,48.9805,13.41,0.07457121551081282,1.5,12.100529802676578,0.00054771804
226.29,594.32,24506.0,4.0806e-05,-0.71823,1.707,85.777,15.904,35.913,640.27,-0.023846,73.621,0.066904,supercritical,Ar,C7440371,argon,150.86,48.9805,13.41,0.07457121551081282,1.5,12.133808352303468,0.0005472084600000001
226.29,595.95,24528.0,4.0769e-05,-0.72126,1.7084,85.753,15.908,35.895,641.13,-0.024042,73.754,0.067006,supercritical,Ar,C7440371,argon,150.86,48.9805,13.41,0.07457121551081282,1.5,12.167086901930361,0.0005467122900000001
226.29,597.58,24551.0,4.0732e-05,-0.72427,1.7098,85.73,15.913,35.876,641.99,-0.024236,73.887,0.067108,supercritical,Ar,C7440371,argon,150.86,48.9805,13.41,0.07457121551081282,1.5,12.200365451557253,0.00054621612