Temperature (K),Pressure (bar),Density (mol/m3),Volume (m3/mol),Internal Energy (kJ/mol),Enthalpy (kJ/mol),Entropy (J/mol*K),Cv (J/mol*K),Cp (J/mol*K),Sound Spd. (m/s),Joule-Thomson (K/bar),Viscosity (uPa*s),Therm. Cond. (W/m*K),Phase,substance,substance_id,substance_name,Tc,Pc,rhoc,Vmc,Tr,Pr,Vmr
256.46,284.62,14517.0,6.8887e-05,1.0972,3.0579,97.799,14.548,37.928,410.65,0.095046,38.294,0.037304,supercritical,Ar,C7440371,argon,150.86,48.9805,13.41,0.07457121551081282,1.6999999999999997,5.810883923193924,0.0009237746700000002
256.46,286.25,14579.0,6.859e-05,1.0887,3.052,97.733,14.553,37.926,411.78,0.093791,38.439,0.037445,supercritical,Ar,C7440371,argon,150.86,48.9805,13.41,0.07457121551081282,1.6999999999999997,5.844162472820816,0.0009197919000000002
256.46,287.88,14642.0,6.8297e-05,1.0801,3.0463,97.667,14.558,37.922,412.9,0.092548,38.584,0.037585,supercritical,Ar,C7440371,argon,150.86,48.9805,13.41,0.07457121551081282,1.6999999999999997,5.877441022447709,0.0009158627700000001
256.46,289.51,14704.0,6.8008e-05,1.0717,3.0406,97.602,14.562,37.918,414.03,0.091318,38.728,0.037725,supercritical,Ar,C7440371,argon,150.86,48.9805,13.41,0.07457121551081282,1.6999999999999997,5.910719572074601,0.0009119872800000001
256.46,291.14,14766.0,6.7723e-05,1.0633,3.035,97.537,14.567,37.913,415.16,0.0901,38.873,0.037865,supercritical,Ar,C7440371,argon,150.86,48.9805,13.41,0.07457121551081282,1.6999999999999997,5.943998121701493,0.0009081654300000001
256.46,292.77,14827.0,6.7443e-05,1.0549,3.0295,97.472,14.572,37.907,416.29,0.088895,39.017,0.038005,supercritical,Ar,C7440371,argon,150.86,48.9805,13.41,0.07457121551081282,1.6999999999999997,5.977276671328386,0.0009044106300000001
256.46,294.4,14888.0,6.7166e-05,1.0466,3.024,97.408,14.576,37.901,417.42,0.087702,39.161,0.038144,supercritical,Ar,C7440371,argon,150.86,48.9805,13.41,0.07457121551081282,1.6999999999999997,6.010555220955278,0.0009006960600000001
256.46,296.03,14949.0,6.6893e-05,1.0384,3.0186,97.344,14.581,37.895,418.55,0.086521,39.305,0.038283,supercritical,Ar,C7440371,argon,150.86,48.9805,13.41,0.07457121551081282,1.6999999999999997,6.04383377058217,0.00089703513
256.46,297.66,15010.0,6.6624e-05,1.0302,3.0133,97.281,14.585,37.887,419.68,0.085352,39.449,0.038422,supercritical,Ar,C7440371,argon,150.86,48.9805,13.41,0.07457121551081282,1.6999999999999997,6.077112320209063,0.0008934278400000001
256.46,299.29,15070.0,6.6359e-05,1.022,3.0081,97.219,14.59,37.879,420.81,0.084195,39.592,0.038561,supercritical,Ar,C7440371,argon,150.86,48.9805,13.41,0.07457121551081282,1.6999999999999997,6.110390869835956,0.0008898741900000001
256.46,300.92,15129.0,6.6097e-05,1.0139,3.0029,97.156,14.594,37.871,421.94,0.08305,39.735,0.038699,supercritical,Ar,C7440371,argon,150.86,48.9805,13.41,0.07457121551081282,1.6999999999999997,6.143669419462848,0.0008863607700000001
256.46,302.55,15188.0,6.5839e-05,1.0059,2.9978,97.095,14.599,37.862,423.07,0.081916,39.878,0.038837,supercritical,Ar,C7440371,argon,150.86,48.9805,13.41,0.07457121551081282,1.6999999999999997,6.17694796908974,0.0008829009900000001
256.46,304.18,15247.0,6.5585e-05,0.99784,2.9928,97.033,14.603,37.852,424.2,0.080794,40.021,0.038974,supercritical,Ar,C7440371,argon,150.86,48.9805,13.41,0.07457121551081282,1.6999999999999997,6.210226518716633,0.0008794948500000002
256.46,305.81,15306.0,6.5334e-05,0.98988,2.9879,96.972,14.607,37.842,425.32,0.079684,40.164,0.039111,supercritical,Ar,C7440371,argon,150.86,48.9805,13.41,0.07457121551081282,1.6999999999999997,6.2435050683435245,0.00087612894
256.46,307.44,15364.0,6.5086e-05,0.98197,2.983,96.912,14.612,37.831,426.45,0.078584,40.306,0.039248,supercritical,Ar,C7440371,argon,150.86,48.9805,13.41,0.07457121551081282,1.6999999999999997,6.276783617970417,0.0008728032600000002
256.46,309.07,15422.0,6.4842e-05,0.9741,2.9782,96.852,14.616,37.82,427.58,0.077496,40.448,0.039385,supercritical,Ar,C7440371,argon,150.86,48.9805,13.41,0.07457121551081282,1.6999999999999997,6.310062167597309,0.0008695312200000001
256.46,310.7,15480.0,6.46e-05,0.96628,2.9734,96.792,14.621,37.809,428.71,0.076418,40.59,0.039521,supercritical,Ar,C7440371,argon,150.86,48.9805,13.41,0.07457121551081282,1.6999999999999997,6.343340717224201,0.0008662860000000001
256.46,312.33,15537.0,6.4362e-05,0.95851,2.9687,96.733,14.625,37.797,429.84,0.075352,40.731,0.039657,supercritical,Ar,C7440371,argon,150.86,48.9805,13.41,0.07457121551081282,1.6999999999999997,6.376619266851094,0.0008630944200000002
256.46,313.96,15594.0,6.4127e-05,0.95078,2.9641,96.674,14.629,37.784,430.97,0.074296,40.872,0.039792,supercritical,Ar,C7440371,argon,150.86,48.9805,13.41,0.07457121551081282,1.6999999999999997,6.409897816477986,0.0008599430700000001
256.46,315.59,15651.0,6.3896e-05,0.9431,2.9596,96.616,14.634,37.771,432.09,0.073251,41.013,0.039927,supercritical,Ar,C7440371,argon,150.86,48.9805,13.41,0.07457121551081282,1.6999999999999997,6.443176366104878,0.00085684536
256.46,317.22,15707.0,6.3667e-05,0.93547,2.9551,96.558,14.638,37.758,433.22,0.072217,41.154,0.040062,supercritical,Ar,C7440371,argon,150.86,48.9805,13.41,0.07457121551081282,1.6999999999999997,6.476454915731772,0.00085377447
256.46,318.85,15763.0,6.3441e-05,0.92788,2.9507,96.5,14.642,37.745,434.35,0.071193,41.295,0.040197,supercritical,Ar,C7440371,argon,150.86,48.9805,13.41,0.07457121551081282,1.6999999999999997,6.509733465358663,0.0008507438100000002
256.46,320.48,15818.0,6.3218e-05,0.92034,2.9464,96.443,14.647,37.731,435.47,0.070179,41.435,0.040331,supercritical,Ar,C7440371,argon,150.86,48.9805,13.41,0.07457121551081282,1.6999999999999997,6.543012014985556,0.0008477533800000001
256.46,322.11,15874.0,6.2998e-05,0.91284,2.9421,96.386,14.651,37.716,436.59,0.069176,41.575,0.040464,supercritical,Ar,C7440371,argon,150.86,48.9805,13.41,0.07457121551081282,1.6999999999999997,6.5762905646124485,0.00084480318
256.46,323.74,15928.0,6.2781e-05,0.90538,2.9378,96.33,14.655,37.701,437.72,0.068182,41.715,0.040598,supercritical,Ar,C7440371,argon,150.86,48.9805,13.41,0.07457121551081282,1.6999999999999997,6.60956911423934,0.00084189321
256.46,325.37,15983.0,6.2566e-05,0.89797,2.9337,96.274,14.659,37.686,438.84,0.067199,41.854,0.040731,supercritical,Ar,C7440371,argon,150.86,48.9805,13.41,0.07457121551081282,1.6999999999999997,6.642847663866233,0.00083901006
256.46,327.0,16037.0,6.2354e-05,0.89061,2.9296,96.218,14.664,37.671,439.96,0.066225,41.993,0.040864,supercritical,Ar,C7440371,argon,150.86,48.9805,13.41,0.07457121551081282,1.6999999999999997,6.6761262134931245,0.0008361671400000002
256.46,328.63,16091.0,6.2145e-05,0.88328,2.9256,96.163,14.668,37.655,441.09,0.065262,42.132,0.040996,supercritical,Ar,C7440371,argon,150.86,48.9805,13.41,0.07457121551081282,1.6999999999999997,6.709404763120017,0.00083336445
256.46,330.26,16145.0,6.1938e-05,0.876,2.9216,96.108,14.672,37.639,442.21,0.064307,42.271,0.041128,supercritical,Ar,C7440371,argon,150.86,48.9805,13.41,0.07457121551081282,1.6999999999999997,6.74268331274691,0.0008305885800000001
256.46,331.89,16198.0,6.1734e-05,0.86876,2.9177,96.053,14.676,37.623,443.32,0.063363,42.409,0.04126,supercritical,Ar,C7440371,argon,150.86,48.9805,13.41,0.07457121551081282,1.6999999999999997,6.775961862373801,0.0008278529400000002
256.46,333.52,16252.0,6.1533e-05,0.86157,2.9138,95.999,14.681,37.606,444.44,0.062428,42.547,0.041391,supercritical,Ar,C7440371,argon,150.86,48.9805,13.41,0.07457121551081282,1.6999999999999997,6.809240412000694,0.00082515753
256.46,335.15,16304.0,6.1334e-05,0.85442,2.91,95.945,14.685,37.589,445.56,0.061502,42.685,0.041522,supercritical,Ar,C7440371,argon,150.86,48.9805,13.41,0.07457121551081282,1.6999999999999997,6.8425189616275865,0.0008224889400000002
256.46,336.78,16357.0,6.1137e-05,0.8473,2.9063,95.892,14.689,37.572,446.68,0.060586,42.823,0.041653,supercritical,Ar,C7440371,argon,150.86,48.9805,13.41,0.07457121551081282,1.6999999999999997,6.875797511254478,0.00081984717
256.46,338.41,16409.0,6.0942e-05,0.84023,2.9026,95.838,14.693,37.554,447.79,0.059678,42.96,0.041783,supercritical,Ar,C7440371,argon,150.86,48.9805,13.41,0.07457121551081282,1.6999999999999997,6.909076060881372,0.0008172322200000001
256.46,340.04,16461.0,6.075e-05,0.8332,2.899,95.786,14.697,37.537,448.91,0.05878,43.097,0.041913,supercritical,Ar,C7440371,argon,150.86,48.9805,13.41,0.07457121551081282,1.6999999999999997,6.942354610508264,0.0008146575
256.46,341.67,16512.0,6.0561e-05,0.82621,2.8954,95.733,14.702,37.519,450.02,0.05789,43.234,0.042042,supercritical,Ar,C7440371,argon,150.86,48.9805,13.41,0.07457121551081282,1.6999999999999997,6.975633160135156,0.0008121230100000001
256.46,343.3,16564.0,6.0373e-05,0.81927,2.8919,95.681,14.706,37.501,451.13,0.05701,43.37,0.042171,supercritical,Ar,C7440371,argon,150.86,48.9805,13.41,0.07457121551081282,1.6999999999999997,7.008911709762049,0.00080960193
256.46,344.93,16615.0,6.0188e-05,0.81236,2.8884,95.629,14.71,37.482,452.24,0.056138,43.507,0.0423,supercritical,Ar,C7440371,argon,150.86,48.9805,13.41,0.07457121551081282,1.6999999999999997,7.042190259388941,0.0008071210800000001
256.46,346.56,16665.0,6.0005e-05,0.80549,2.885,95.578,14.714,37.464,453.35,0.055275,43.643,0.042429,supercritical,Ar,C7440371,argon,150.86,48.9805,13.41,0.07457121551081282,1.6999999999999997,7.075468809015833,0.00080466705
256.46,348.19,16716.0,5.9824e-05,0.79866,2.8817,95.527,14.718,37.445,454.46,0.05442,43.778,0.042557,supercritical,Ar,C7440371,argon,150.86,48.9805,13.41,0.07457121551081282,1.6999999999999997,7.1087473586427254,0.0008022398400000001
256.46,349.82,16766.0,5.9645e-05,0.79187,2.8784,95.476,14.722,37.426,455.57,0.053574,43.914,0.042684,supercritical,Ar,C7440371,argon,150.86,48.9805,13.41,0.07457121551081282,1.6999999999999997,7.142025908269617,0.0007998394500000002
256.46,351.45,16816.0,5.9468e-05,0.78512,2.8751,95.425,14.727,37.407,456.67,0.052736,44.049,0.042812,supercritical,Ar,C7440371,argon,150.86,48.9805,13.41,0.07457121551081282,1.6999999999999997,7.17530445789651,0.0007974658800000001
256.46,353.08,16865.0,5.9294e-05,0.77841,2.8719,95.375,14.731,37.388,457.77,0.051906,44.184,0.042939,supercritical,Ar,C7440371,argon,150.86,48.9805,13.41,0.07457121551081282,1.6999999999999997,7.208583007523402,0.0007951325400000001
256.46,354.71,16914.0,5.9121e-05,0.77173,2.8688,95.325,14.735,37.368,458.88,0.051084,44.319,0.043066,supercritical,Ar,C7440371,argon,150.86,48.9805,13.41,0.07457121551081282,1.6999999999999997,7.241861557150294,0.0007928126100000001
256.46,356.34,16963.0,5.895e-05,0.7651,2.8657,95.276,14.739,37.349,459.98,0.050271,44.454,0.043192,supercritical,Ar,C7440371,argon,150.86,48.9805,13.41,0.07457121551081282,1.6999999999999997,7.275140106777187,0.0007905195000000001
256.46,357.97,17012.0,5.8781e-05,0.7585,2.8627,95.227,14.743,37.329,461.08,0.049465,44.588,0.043318,supercritical,Ar,C7440371,argon,150.86,48.9805,13.41,0.07457121551081282,1.6999999999999997,7.30841865640408,0.0007882532100000001
256.46,359.6,17061.0,5.8614e-05,0.75193,2.8597,95.178,14.747,37.309,462.18,0.048668,44.722,0.043444,supercritical,Ar,C7440371,argon,150.86,48.9805,13.41,0.07457121551081282,1.6999999999999997,7.341697206030972,0.0007860137400000001
256.46,361.23,17109.0,5.8449e-05,0.74541,2.8568,95.129,14.751,37.289,463.27,0.047878,44.856,0.043569,supercritical,Ar,C7440371,argon,150.86,48.9805,13.41,0.07457121551081282,1.6999999999999997,7.374975755657864,0.0007838010900000001
256.46,362.86,17157.0,5.8286e-05,0.73892,2.8539,95.081,14.755,37.269,464.37,0.047095,44.99,0.043694,supercritical,Ar,C7440371,argon,150.86,48.9805,13.41,0.07457121551081282,1.6999999999999997,7.408254305284757,0.0007816152600000001
256.46,364.49,17204.0,5.8124e-05,0.73247,2.851,95.033,14.76,37.249,465.46,0.046321,45.123,0.043819,supercritical,Ar,C7440371,argon,150.86,48.9805,13.41,0.07457121551081282,1.6999999999999997,7.441532854911649,0.0007794428400000001
256.46,366.12,17252.0,5.7965e-05,0.72605,2.8483,94.985,14.764,37.228,466.55,0.045554,45.256,0.043943,supercritical,Ar,C7440371,argon,150.86,48.9805,13.41,0.07457121551081282,1.6999999999999997,7.474811404538541,0.00077731065
256.46,367.75,17299.0,5.7807e-05,0.71967,2.8455,94.937,14.768,37.208,467.64,0.044794,45.389,0.044067,supercritical,Ar,C7440371,argon,150.86,48.9805,13.41,0.07457121551081282,1.6999999999999997,7.508089954165433,0.00077519187
256.46,369.38,17346.0,5.7651e-05,0.71333,2.8428,94.89,14.772,37.187,468.73,0.044042,45.522,0.04419,supercritical,Ar,C7440371,argon,150.86,48.9805,13.41,0.07457121551081282,1.6999999999999997,7.5413685037923255,0.0007730999100000001
256.46,371.01,17393.0,5.7496e-05,0.70702,2.8402,94.843,14.776,37.167,469.82,0.043296,45.654,0.044314,supercritical,Ar,C7440371,argon,150.86,48.9805,13.41,0.07457121551081282,1.6999999999999997,7.574647053419218,0.0007710213600000001
256.46,372.64,17439.0,5.7343e-05,0.70074,2.8376,94.797,14.78,37.146,470.91,0.042558,45.787,0.044437,supercritical,Ar,C7440371,argon,150.86,48.9805,13.41,0.07457121551081282,1.6999999999999997,7.60792560304611,0.0007689696300000001
256.46,374.27,17485.0,5.7192e-05,0.6945,2.835,94.75,14.784,37.125,471.99,0.041828,45.919,0.044559,supercritical,Ar,C7440371,argon,150.86,48.9805,13.41,0.07457121551081282,1.6999999999999997,7.641204152673002,0.00076694472
256.46,375.9,17531.0,5.7042e-05,0.6883,2.8325,94.704,14.788,37.104,473.07,0.041104,46.051,0.044682,supercritical,Ar,C7440371,argon,150.86,48.9805,13.41,0.07457121551081282,1.6999999999999997,7.674482702299895,0.0007649332200000001
256.46,377.53,17576.0,5.6894e-05,0.68213,2.8301,94.658,14.792,37.084,474.15,0.040387,46.183,0.044804,supercritical,Ar,C7440371,argon,150.86,48.9805,13.41,0.07457121551081282,1.6999999999999997,7.707761251926787,0.0007629485400000001
256.46,379.16,17622.0,5.6748e-05,0.67599,2.8276,94.613,14.796,37.062,475.23,0.039677,46.314,0.044925,supercritical,Ar,C7440371,argon,150.86,48.9805,13.41,0.07457121551081282,1.6999999999999997,7.74103980155368,0.0007609906800000001
256.46,380.79,17667.0,5.6603e-05,0.66988,2.8253,94.568,14.8,37.041,476.31,0.038973,46.445,0.045047,supercritical,Ar,C7440371,argon,150.86,48.9805,13.41,0.07457121551081282,1.6999999999999997,7.774318351180573,0.00075904623
256.46,382.42,17712.0,5.6459e-05,0.66381,2.8229,94.522,14.805,37.02,477.38,0.038277,46.577,0.045168,supercritical,Ar,C7440371,argon,150.86,48.9805,13.41,0.07457121551081282,1.6999999999999997,7.807596900807464,0.0007571151900000002
256.46,384.05,17757.0,5.6317e-05,0.65777,2.8206,94.478,14.809,36.999,478.46,0.037587,46.707,0.045288,supercritical,Ar,C7440371,argon,150.86,48.9805,13.41,0.07457121551081282,1.6999999999999997,7.840875450434357,0.0007552109700000001
256.46,385.68,17801.0,5.6177e-05,0.65177,2.8184,94.433,14.813,36.978,479.53,0.036903,46.838,0.045409,supercritical,Ar,C7440371,argon,150.86,48.9805,13.41,0.07457121551081282,1.6999999999999997,7.8741540000612495,0.0007533335700000001
256.46,387.31,17845.0,5.6038e-05,0.6458,2.8162,94.389,14.817,36.957,480.6,0.036226,46.969,0.045529,supercritical,Ar,C7440371,argon,150.86,48.9805,13.41,0.07457121551081282,1.6999999999999997,7.907432549688141,0.0007514695800000001
256.46,388.94,17889.0,5.59e-05,0.63985,2.814,94.345,14.821,36.935,481.67,0.035555,47.099,0.045648,supercritical,Ar,C7440371,argon,150.86,48.9805,13.41,0.07457121551081282,1.6999999999999997,7.940711099315034,0.000749619
256.46,390.57,17933.0,5.5764e-05,0.63394,2.8119,94.301,14.825,36.914,482.73,0.034891,47.229,0.045768,supercritical,Ar,C7440371,argon,150.86,48.9805,13.41,0.07457121551081282,1.6999999999999997,7.9739896489419255,0.00074779524
256.46,392.2,17976.0,5.5629e-05,0.62807,2.8098,94.258,14.829,36.893,483.8,0.034233,47.36,0.045887,supercritical,Ar,C7440371,argon,150.86,48.9805,13.41,0.07457121551081282,1.6999999999999997,8.007268198568818,0.00074598489
256.46,393.83,18020.0,5.5495e-05,0.62222,2.8078,94.214,14.833,36.871,484.86,0.033581,47.489,0.046006,supercritical,Ar,C7440371,argon,150.86,48.9805,13.41,0.07457121551081282,1.6999999999999997,8.04054674819571,0.0007441879500000001
256.46,395.46,18063.0,5.5363e-05,0.6164,2.8058,94.171,14.837,36.85,485.92,0.032935,47.619,0.046124,supercritical,Ar,C7440371,argon,150.86,48.9805,13.41,0.07457121551081282,1.6999999999999997,8.073825297822603,0.00074241783
256.46,397.09,18105.0,5.5232e-05,0.61062,2.8038,94.129,14.841,36.829,486.98,0.032295,47.749,0.046243,supercritical,Ar,C7440371,argon,150.86,48.9805,13.41,0.07457121551081282,1.6999999999999997,8.107103847449494,0.0007406611200000002
256.46,398.72,18148.0,5.5103e-05,0.60487,2.8019,94.086,14.845,36.807,488.04,0.031661,47.878,0.046361,supercritical,Ar,C7440371,argon,150.86,48.9805,13.41,0.07457121551081282,1.6999999999999997,8.140382397076388,0.00073893123
256.46,400.35,18190.0,5.4974e-05,0.59914,2.8,94.044,14.849,36.786,489.1,0.031033,48.007,0.046478,supercritical,Ar,C7440371,argon,150.86,48.9805,13.41,0.07457121551081282,1.6999999999999997,8.173660946703281,0.0007372013400000001
256.46,401.98,18232.0,5.4847e-05,0.59345,2.7982,94.002,14.853,36.764,490.15,0.030411,48.136,0.046595,supercritical,Ar,C7440371,argon,150.86,48.9805,13.41,0.07457121551081282,1.6999999999999997,8.206939496330172,0.00073549827
256.46,403.61,18274.0,5.4721e-05,0.58778,2.7964,93.96,14.857,36.743,491.2,0.029794,48.265,0.046713,supercritical,Ar,C7440371,argon,150.86,48.9805,13.41,0.07457121551081282,1.6999999999999997,8.240218045957064,0.00073380861
256.46,405.24,18316.0,5.4597e-05,0.58215,2.7946,93.918,14.861,36.721,492.25,0.029183,48.394,0.046829,supercritical,Ar,C7440371,argon,150.86,48.9805,13.41,0.07457121551081282,1.6999999999999997,8.273496595583957,0.0007321457700000001
256.46,406.87,18358.0,5.4473e-05,0.57654,2.7929,93.877,14.865,36.7,493.3,0.028578,48.523,0.046946,supercritical,Ar,C7440371,argon,150.86,48.9805,13.41,0.07457121551081282,1.6999999999999997,8.30677514521085,0.00073048293
256.46,408.5,18399.0,5.4351e-05,0.57097,2.7912,93.836,14.869,36.679,494.34,0.027978,48.651,0.047062,supercritical,Ar,C7440371,argon,150.86,48.9805,13.41,0.07457121551081282,1.6999999999999997,8.340053694837742,0.0007288469100000001
256.46,410.13,18440.0,5.423e-05,0.56542,2.7896,93.795,14.874,36.657,495.39,0.027384,48.779,0.047178,supercritical,Ar,C7440371,argon,150.86,48.9805,13.41,0.07457121551081282,1.6999999999999997,8.373332244464635,0.0007272243
256.46,411.76,18481.0,5.411e-05,0.5599,2.7879,93.754,14.878,36.636,496.43,0.026795,48.908,0.047294,supercritical,Ar,C7440371,argon,150.86,48.9805,13.41,0.07457121551081282,1.6999999999999997,8.406610794091526,0.0007256151000000001
256.46,413.39,18522.0,5.3991e-05,0.55441,2.7864,93.713,14.882,36.614,497.47,0.026212,49.036,0.047409,supercritical,Ar,C7440371,argon,150.86,48.9805,13.41,0.07457121551081282,1.6999999999999997,8.439889343718418,0.0007240193100000001
256.46,415.02,18562.0,5.3874e-05,0.54895,2.7848,93.673,14.886,36.593,498.51,0.025634,49.164,0.047524,supercritical,Ar,C7440371,argon,150.86,48.9805,13.41,0.07457121551081282,1.6999999999999997,8.47316789334531,0.0007224503400000001
256.46,416.65,18602.0,5.3757e-05,0.54351,2.7833,93.633,14.89,36.572,499.55,0.025061,49.291,0.047639,supercritical,Ar,C7440371,argon,150.86,48.9805,13.41,0.07457121551081282,1.6999999999999997,8.506446442972203,0.0007208813700000001
256.46,418.28,18642.0,5.3641e-05,0.53811,2.7818,93.593,14.894,36.55,500.58,0.024493,49.419,0.047753,supercritical,Ar,C7440371,argon,150.86,48.9805,13.41,0.07457121551081282,1.6999999999999997,8.539724992599096,0.0007193258100000001
256.46,419.91,18682.0,5.3527e-05,0.53273,2.7804,93.553,14.898,36.529,501.61,0.02393,49.547,0.047868,supercritical,Ar,C7440371,argon,150.86,48.9805,13.41,0.07457121551081282,1.6999999999999997,8.573003542225988,0.00071779707
256.46,421.54,18722.0,5.3414e-05,0.52737,2.779,93.514,14.902,36.508,502.64,0.023373,49.674,0.047982,supercritical,Ar,C7440371,argon,150.86,48.9805,13.41,0.07457121551081282,1.6999999999999997,8.606282091852881,0.0007162817400000001