Temperature (K),Pressure (bar),Density (mol/m3),Volume (m3/mol),Internal Energy (kJ/mol),Enthalpy (kJ/mol),Entropy (J/mol*K),Cv (J/mol*K),Cp (J/mol*K),Sound Spd. (m/s),Joule-Thomson (K/bar),Viscosity (uPa*s),Therm. Cond. (W/m*K),Phase,substance,substance_id,substance_name,Tc,Pc,rhoc,Vmc,Tr,Pr,Vmr
841.1,1406.5,29258.0,3.4179e-05,41.528,46.336,84.882,45.994,87.339,957.55,0.039111,67.875,0.41195,supercritical,H2O,C7732185,water,647.0,220.64,17.9,0.0558659217877095,1.3,6.3746374184191446,0.0006118040999999999
841.1,1413.9,29342.0,3.4081e-05,41.492,46.311,84.822,45.996,87.189,960.56,0.03861,68.041,0.41326,supercritical,H2O,C7732185,water,647.0,220.64,17.9,0.0558659217877095,1.3,6.408176214648297,0.0006100499
841.1,1421.2,29425.0,3.3984e-05,41.456,46.286,84.763,45.997,87.04,963.55,0.038117,68.207,0.41456,supercritical,H2O,C7732185,water,647.0,220.64,17.9,0.0558659217877095,1.3,6.441261783901378,0.0006083136
841.1,1428.6,29508.0,3.3889e-05,41.421,46.262,84.705,45.999,86.892,966.54,0.03763,68.373,0.41585,supercritical,H2O,C7732185,water,647.0,220.64,17.9,0.0558659217877095,1.3,6.4748005801305295,0.0006066130999999999
841.1,1435.9,29590.0,3.3795e-05,41.385,46.238,84.647,46.0,86.746,969.51,0.037151,68.537,0.41714,supercritical,H2O,C7732185,water,647.0,220.64,17.9,0.0558659217877095,1.3,6.507886149383612,0.0006049304999999999
841.1,1443.3,29672.0,3.3702e-05,41.35,46.215,84.589,46.002,86.601,972.48,0.036678,68.701,0.41841,supercritical,H2O,C7732185,water,647.0,220.64,17.9,0.0558659217877095,1.3,6.541424945612763,0.0006032657999999999
841.1,1450.6,29753.0,3.3611e-05,41.316,46.191,84.532,46.003,86.458,975.43,0.036213,68.863,0.41969,supercritical,H2O,C7732185,water,647.0,220.64,17.9,0.0558659217877095,1.3,6.574510514865845,0.0006016369
841.1,1458.0,29833.0,3.352e-05,41.281,46.169,84.476,46.005,86.316,978.37,0.035753,69.025,0.42095,supercritical,H2O,C7732185,water,647.0,220.64,17.9,0.0558659217877095,1.3,6.608049311094997,0.000600008
841.1,1465.3,29913.0,3.3431e-05,41.247,46.146,84.42,46.007,86.175,981.3,0.035301,69.187,0.42221,supercritical,H2O,C7732185,water,647.0,220.64,17.9,0.0558659217877095,1.3,6.641134880348078,0.0005984148999999999
841.1,1472.7,29992.0,3.3343e-05,41.214,46.124,84.364,46.008,86.036,984.23,0.034855,69.347,0.42346,supercritical,H2O,C7732185,water,647.0,220.64,17.9,0.0558659217877095,1.3,6.67467367657723,0.0005968397
841.1,1480.0,30070.0,3.3256e-05,41.18,46.102,84.309,46.01,85.898,987.14,0.034414,69.507,0.42471,supercritical,H2O,C7732185,water,647.0,220.64,17.9,0.0558659217877095,1.3,6.707759245830312,0.0005952824
841.1,1487.4,30148.0,3.317e-05,41.147,46.08,84.255,46.012,85.761,990.04,0.03398,69.667,0.42595,supercritical,H2O,C7732185,water,647.0,220.64,17.9,0.0558659217877095,1.3,6.741298042059464,0.000593743
841.1,1494.7,30225.0,3.3085e-05,41.114,46.059,84.2,46.014,85.626,992.93,0.033552,69.825,0.42718,supercritical,H2O,C7732185,water,647.0,220.64,17.9,0.0558659217877095,1.3,6.774383611312546,0.0005922214999999999
841.1,1502.1,30302.0,3.3001e-05,41.081,46.038,84.147,46.016,85.492,995.81,0.03313,69.983,0.42841,supercritical,H2O,C7732185,water,647.0,220.64,17.9,0.0558659217877095,1.3,6.807922407541697,0.0005907178999999999
841.1,1509.4,30378.0,3.2919e-05,41.049,46.018,84.093,46.017,85.359,998.68,0.032714,70.14,0.42963,supercritical,H2O,C7732185,water,647.0,220.64,17.9,0.0558659217877095,1.3,6.84100797679478,0.0005892501
841.1,1516.8,30454.0,3.2837e-05,41.017,45.997,84.04,46.019,85.228,1001.5,0.032303,70.296,0.43085,supercritical,H2O,C7732185,water,647.0,220.64,17.9,0.0558659217877095,1.3,6.874546773023931,0.0005877822999999999
841.1,1524.1,30529.0,3.2756e-05,40.985,45.977,83.988,46.021,85.097,1004.4,0.031898,70.452,0.43206,supercritical,H2O,C7732185,water,647.0,220.64,17.9,0.0558659217877095,1.3,6.9076323422770125,0.0005863324
841.1,1531.5,30603.0,3.2676e-05,40.953,45.957,83.936,46.023,84.968,1007.2,0.031498,70.607,0.43326,supercritical,H2O,C7732185,water,647.0,220.64,17.9,0.0558659217877095,1.3,6.9411711385061645,0.0005849003999999999
841.1,1538.8,30677.0,3.2598e-05,40.922,45.938,83.884,46.025,84.84,1010.1,0.031103,70.762,0.43446,supercritical,H2O,C7732185,water,647.0,220.64,17.9,0.0558659217877095,1.3,6.974256707759246,0.0005835042
841.1,1546.1,30750.0,3.252e-05,40.89,45.919,83.833,46.028,84.714,1012.9,0.030714,70.915,0.43565,supercritical,H2O,C7732185,water,647.0,220.64,17.9,0.0558659217877095,1.3,7.007342277012328,0.000582108
841.1,1553.5,30823.0,3.2443e-05,40.86,45.9,83.782,46.03,84.588,1015.7,0.03033,71.068,0.43684,supercritical,H2O,C7732185,water,647.0,220.64,17.9,0.0558659217877095,1.3,7.04088107324148,0.0005807297
841.1,1560.8,30896.0,3.2367e-05,40.829,45.881,83.731,46.032,84.464,1018.5,0.02995,71.221,0.43802,supercritical,H2O,C7732185,water,647.0,220.64,17.9,0.0558659217877095,1.3,7.073966642494561,0.0005793692999999999
841.1,1568.2,30968.0,3.2292e-05,40.798,45.862,83.681,46.034,84.341,1021.3,0.029576,71.373,0.4392,supercritical,H2O,C7732185,water,647.0,220.64,17.9,0.0558659217877095,1.3,7.107505438723713,0.0005780268
841.1,1575.5,31039.0,3.2217e-05,40.768,45.844,83.631,46.036,84.219,1024.0,0.029207,71.524,0.44037,supercritical,H2O,C7732185,water,647.0,220.64,17.9,0.0558659217877095,1.3,7.140591007976795,0.0005766842999999999
841.1,1582.9,31110.0,3.2144e-05,40.738,45.826,83.582,46.038,84.098,1026.8,0.028842,71.675,0.44154,supercritical,H2O,C7732185,water,647.0,220.64,17.9,0.0558659217877095,1.3,7.174129804205947,0.0005753776000000001
841.1,1590.2,31180.0,3.2071e-05,40.708,45.808,83.533,46.041,83.978,1029.6,0.028482,71.825,0.4427,supercritical,H2O,C7732185,water,647.0,220.64,17.9,0.0558659217877095,1.3,7.207215373459029,0.0005740709
841.1,1597.6,31250.0,3.2e-05,40.679,45.791,83.484,46.043,83.859,1032.3,0.028126,71.974,0.44386,supercritical,H2O,C7732185,water,647.0,220.64,17.9,0.0558659217877095,1.3,7.24075416968818,0.0005727999999999999
841.1,1604.9,31320.0,3.1929e-05,40.649,45.774,83.435,46.045,83.742,1035.1,0.027775,72.123,0.44501,supercritical,H2O,C7732185,water,647.0,220.64,17.9,0.0558659217877095,1.3,7.273839738941263,0.0005715290999999999
841.1,1612.3,31389.0,3.1858e-05,40.62,45.757,83.387,46.048,83.625,1037.8,0.027429,72.271,0.44616,supercritical,H2O,C7732185,water,647.0,220.64,17.9,0.0558659217877095,1.3,7.307378535170414,0.0005702582
841.1,1619.6,31457.0,3.1789e-05,40.591,45.74,83.34,46.05,83.51,1040.5,0.027086,72.419,0.4473,supercritical,H2O,C7732185,water,647.0,220.64,17.9,0.0558659217877095,1.3,7.3404641044234955,0.0005690230999999999
841.1,1627.0,31526.0,3.172e-05,40.563,45.724,83.292,46.053,83.395,1043.2,0.026748,72.566,0.44844,supercritical,H2O,C7732185,water,647.0,220.64,17.9,0.0558659217877095,1.3,7.3740029006526475,0.000567788
841.1,1634.3,31593.0,3.1652e-05,40.534,45.707,83.245,46.055,83.282,1045.9,0.026414,72.713,0.44957,supercritical,H2O,C7732185,water,647.0,220.64,17.9,0.0558659217877095,1.3,7.407088469905729,0.0005665708
841.1,1641.7,31660.0,3.1585e-05,40.506,45.691,83.199,46.058,83.169,1048.6,0.026085,72.859,0.4507,supercritical,H2O,C7732185,water,647.0,220.64,17.9,0.0558659217877095,1.3,7.440627266134881,0.0005653715
841.1,1649.0,31727.0,3.1519e-05,40.478,45.675,83.152,46.06,83.058,1051.3,0.025759,73.004,0.45182,supercritical,H2O,C7732185,water,647.0,220.64,17.9,0.0558659217877095,1.3,7.473712835387963,0.0005641900999999999
841.1,1656.4,31794.0,3.1453e-05,40.45,45.66,83.106,46.063,82.948,1054.0,0.025437,73.149,0.45294,supercritical,H2O,C7732185,water,647.0,220.64,17.9,0.0558659217877095,1.3,7.507251631617114,0.0005630087
841.1,1663.7,31859.0,3.1388e-05,40.422,45.644,83.06,46.065,82.838,1056.6,0.025119,73.293,0.45405,supercritical,H2O,C7732185,water,647.0,220.64,17.9,0.0558659217877095,1.3,7.540337200870196,0.0005618451999999999
841.1,1671.1,31925.0,3.1324e-05,40.395,45.629,83.015,46.068,82.73,1059.3,0.024805,73.437,0.45516,supercritical,H2O,C7732185,water,647.0,220.64,17.9,0.0558659217877095,1.3,7.573875997099347,0.0005606996
841.1,1678.4,31990.0,3.126e-05,40.368,45.614,82.97,46.071,82.622,1061.9,0.024495,73.58,0.45627,supercritical,H2O,C7732185,water,647.0,220.64,17.9,0.0558659217877095,1.3,7.60696156635243,0.000559554
841.1,1685.8,32055.0,3.1197e-05,40.34,45.6,82.925,46.074,82.516,1064.5,0.024188,73.723,0.45737,supercritical,H2O,C7732185,water,647.0,220.64,17.9,0.0558659217877095,1.3,7.640500362581581,0.0005584263
841.1,1693.1,32119.0,3.1134e-05,40.314,45.585,82.88,46.076,82.41,1067.2,0.023885,73.865,0.45847,supercritical,H2O,C7732185,water,647.0,220.64,17.9,0.0558659217877095,1.3,7.673585931834663,0.0005572985999999999
841.1,1700.5,32183.0,3.1073e-05,40.287,45.571,82.836,46.079,82.306,1069.8,0.023586,74.007,0.45956,supercritical,H2O,C7732185,water,647.0,220.64,17.9,0.0558659217877095,1.3,7.707124728063815,0.0005562067
841.1,1707.8,32246.0,3.1011e-05,40.26,45.556,82.792,46.082,82.202,1072.4,0.02329,74.148,0.46065,supercritical,H2O,C7732185,water,647.0,220.64,17.9,0.0558659217877095,1.3,7.740210297316897,0.0005550968999999999
841.1,1715.2,32309.0,3.0951e-05,40.234,45.542,82.748,46.085,82.099,1075.0,0.022997,74.289,0.46174,supercritical,H2O,C7732185,water,647.0,220.64,17.9,0.0558659217877095,1.3,7.773749093546049,0.0005540229
841.1,1722.5,32372.0,3.0891e-05,40.208,45.529,82.705,46.088,81.997,1077.6,0.022708,74.429,0.46282,supercritical,H2O,C7732185,water,647.0,220.64,17.9,0.0558659217877095,1.3,7.8068346627991305,0.0005529488999999999
841.1,1729.9,32434.0,3.0832e-05,40.182,45.515,82.662,46.09,81.896,1080.2,0.022422,74.569,0.46389,supercritical,H2O,C7732185,water,647.0,220.64,17.9,0.0558659217877095,1.3,7.8403734590282825,0.0005518928
841.1,1737.2,32496.0,3.0773e-05,40.156,45.502,82.619,46.093,81.796,1082.7,0.02214,74.708,0.46497,supercritical,H2O,C7732185,water,647.0,220.64,17.9,0.0558659217877095,1.3,7.873459028281364,0.0005508366999999999
841.1,1744.6,32558.0,3.0715e-05,40.13,45.488,82.577,46.096,81.697,1085.3,0.02186,74.846,0.46604,supercritical,H2O,C7732185,water,647.0,220.64,17.9,0.0558659217877095,1.3,7.906997824510515,0.0005497985
841.1,1751.9,32619.0,3.0657e-05,40.105,45.475,82.534,46.099,81.598,1087.8,0.021584,74.985,0.4671,supercritical,H2O,C7732185,water,647.0,220.64,17.9,0.0558659217877095,1.3,7.940083393763597,0.0005487603
841.1,1759.3,32680.0,3.06e-05,40.079,45.463,82.492,46.102,81.501,1090.4,0.021311,75.122,0.46816,supercritical,H2O,C7732185,water,647.0,220.64,17.9,0.0558659217877095,1.3,7.973622189992748,0.0005477399999999999
841.1,1766.6,32740.0,3.0543e-05,40.054,45.45,82.45,46.105,81.404,1092.9,0.021041,75.26,0.46922,supercritical,H2O,C7732185,water,647.0,220.64,17.9,0.0558659217877095,1.3,8.006707759245831,0.0005467197
841.1,1773.9,32800.0,3.0487e-05,40.029,45.437,82.409,46.108,81.308,1095.5,0.020774,75.396,0.47028,supercritical,H2O,C7732185,water,647.0,220.64,17.9,0.0558659217877095,1.3,8.039793328498913,0.0005457173
841.1,1781.3,32860.0,3.0432e-05,40.004,45.425,82.368,46.111,81.213,1098.0,0.02051,75.533,0.47133,supercritical,H2O,C7732185,water,647.0,220.64,17.9,0.0558659217877095,1.3,8.073332124728065,0.0005447328
841.1,1788.6,32920.0,3.0377e-05,39.98,45.413,82.327,46.114,81.119,1100.5,0.020249,75.669,0.47238,supercritical,H2O,C7732185,water,647.0,220.64,17.9,0.0558659217877095,1.3,8.106417693981145,0.0005437482999999999
841.1,1796.0,32979.0,3.0323e-05,39.955,45.401,82.286,46.118,81.025,1103.0,0.01999,75.804,0.47342,supercritical,H2O,C7732185,water,647.0,220.64,17.9,0.0558659217877095,1.3,8.139956490210297,0.0005427817
841.1,1803.3,33037.0,3.0269e-05,39.931,45.389,82.245,46.121,80.932,1105.5,0.019735,75.939,0.47446,supercritical,H2O,C7732185,water,647.0,220.64,17.9,0.0558659217877095,1.3,8.173042059463379,0.0005418151
841.1,1810.7,33096.0,3.0215e-05,39.906,45.377,82.205,46.124,80.84,1108.0,0.019482,76.073,0.4755,supercritical,H2O,C7732185,water,647.0,220.64,17.9,0.0558659217877095,1.3,8.20658085569253,0.0005408485
841.1,1818.0,33154.0,3.0162e-05,39.882,45.366,82.165,46.127,80.749,1110.4,0.019232,76.208,0.47653,supercritical,H2O,C7732185,water,647.0,220.64,17.9,0.0558659217877095,1.3,8.239666424945613,0.0005398998
841.1,1825.4,33212.0,3.011e-05,39.858,45.355,82.125,46.13,80.659,1112.9,0.018985,76.341,0.47756,supercritical,H2O,C7732185,water,647.0,220.64,17.9,0.0558659217877095,1.3,8.273205221174765,0.000538969
841.1,1832.7,33269.0,3.0058e-05,39.835,45.343,82.086,46.134,80.569,1115.4,0.01874,76.474,0.47859,supercritical,H2O,C7732185,water,647.0,220.64,17.9,0.0558659217877095,1.3,8.306290790427846,0.0005380382
841.1,1840.1,33326.0,3.0006e-05,39.811,45.332,82.046,46.137,80.48,1117.8,0.018498,76.607,0.47961,supercritical,H2O,C7732185,water,647.0,220.64,17.9,0.0558659217877095,1.3,8.339829586656998,0.0005371074
841.1,1847.4,33383.0,2.9955e-05,39.788,45.322,82.007,46.14,80.392,1120.3,0.018258,76.739,0.48063,supercritical,H2O,C7732185,water,647.0,220.64,17.9,0.0558659217877095,1.3,8.37291515591008,0.0005361945
841.1,1854.8,33439.0,2.9905e-05,39.764,45.311,81.968,46.143,80.304,1122.7,0.018021,76.871,0.48165,supercritical,H2O,C7732185,water,647.0,220.64,17.9,0.0558659217877095,1.3,8.406453952139232,0.0005352995
841.1,1862.1,33496.0,2.9855e-05,39.741,45.3,81.93,46.147,80.217,1125.1,0.017787,77.003,0.48266,supercritical,H2O,C7732185,water,647.0,220.64,17.9,0.0558659217877095,1.3,8.439539521392314,0.0005344045
841.1,1869.5,33551.0,2.9805e-05,39.718,45.29,81.891,46.15,80.131,1127.6,0.017555,77.134,0.48367,supercritical,H2O,C7732185,water,647.0,220.64,17.9,0.0558659217877095,1.3,8.473078317621466,0.0005335095
841.1,1876.8,33607.0,2.9756e-05,39.695,45.28,81.853,46.153,80.046,1130.0,0.017325,77.265,0.48468,supercritical,H2O,C7732185,water,647.0,220.64,17.9,0.0558659217877095,1.3,8.506163886874548,0.0005326324
841.1,1884.2,33662.0,2.9707e-05,39.672,45.27,81.815,46.157,79.961,1132.4,0.017098,77.395,0.48569,supercritical,H2O,C7732185,water,647.0,220.64,17.9,0.0558659217877095,1.3,8.5397026831037,0.0005317553
841.1,1891.5,33717.0,2.9658e-05,39.65,45.26,81.777,46.16,79.877,1134.8,0.016873,77.525,0.48669,supercritical,H2O,C7732185,water,647.0,220.64,17.9,0.0558659217877095,1.3,8.57278825235678,0.0005308782
841.1,1898.9,33772.0,2.961e-05,39.627,45.25,81.74,46.164,79.794,1137.2,0.01665,77.654,0.48769,supercritical,H2O,C7732185,water,647.0,220.64,17.9,0.0558659217877095,1.3,8.606327048585932,0.000530019
841.1,1906.2,33826.0,2.9563e-05,39.605,45.24,81.702,46.167,79.711,1139.6,0.01643,77.783,0.48868,supercritical,H2O,C7732185,water,647.0,220.64,17.9,0.0558659217877095,1.3,8.639412617839014,0.0005291777
841.1,1913.6,33880.0,2.9516e-05,39.582,45.23,81.665,46.17,79.629,1141.9,0.016211,77.912,0.48967,supercritical,H2O,C7732185,water,647.0,220.64,17.9,0.0558659217877095,1.3,8.672951414068166,0.0005283363999999999
841.1,1920.9,33934.0,2.9469e-05,39.56,45.221,81.628,46.174,79.547,1144.3,0.015995,78.04,0.49066,supercritical,H2O,C7732185,water,647.0,220.64,17.9,0.0558659217877095,1.3,8.706036983321248,0.0005274950999999999
841.1,1928.3,33988.0,2.9422e-05,39.538,45.212,81.591,46.177,79.467,1146.7,0.015782,78.168,0.49165,supercritical,H2O,C7732185,water,647.0,220.64,17.9,0.0558659217877095,1.3,8.7395757795504,0.0005266538
841.1,1935.6,34041.0,2.9376e-05,39.516,45.203,81.555,46.181,79.386,1149.0,0.01557,78.295,0.49263,supercritical,H2O,C7732185,water,647.0,220.64,17.9,0.0558659217877095,1.3,8.772661348803481,0.0005258303999999999
841.1,1943.0,34094.0,2.9331e-05,39.495,45.194,81.518,46.184,79.307,1151.4,0.01536,78.422,0.49362,supercritical,H2O,C7732185,water,647.0,220.64,17.9,0.0558659217877095,1.3,8.806200145032633,0.0005250249
841.1,1950.3,34147.0,2.9286e-05,39.473,45.185,81.482,46.188,79.228,1153.7,0.015153,78.549,0.49459,supercritical,H2O,C7732185,water,647.0,220.64,17.9,0.0558659217877095,1.3,8.839285714285715,0.0005242194
841.1,1957.7,34199.0,2.9241e-05,39.452,45.176,81.446,46.192,79.15,1156.0,0.014947,78.675,0.49557,supercritical,H2O,C7732185,water,647.0,220.64,17.9,0.0558659217877095,1.3,8.872824510514867,0.0005234139
841.1,1965.0,34251.0,2.9196e-05,39.43,45.167,81.41,46.195,79.072,1158.4,0.014744,78.801,0.49654,supercritical,H2O,C7732185,water,647.0,220.64,17.9,0.0558659217877095,1.3,8.90591007976795,0.0005226084
841.1,1972.4,34303.0,2.9152e-05,39.409,45.159,81.375,46.199,78.995,1160.7,0.014542,78.927,0.49751,supercritical,H2O,C7732185,water,647.0,220.64,17.9,0.0558659217877095,1.3,8.939448875997101,0.0005218208
841.1,1979.7,34355.0,2.9108e-05,39.388,45.15,81.339,46.202,78.918,1163.0,0.014342,79.052,0.49848,supercritical,H2O,C7732185,water,647.0,220.64,17.9,0.0558659217877095,1.3,8.972534445250181,0.0005210331999999999
841.1,1987.1,34406.0,2.9065e-05,39.367,45.142,81.304,46.206,78.842,1165.3,0.014145,79.177,0.49945,supercritical,H2O,C7732185,water,647.0,220.64,17.9,0.0558659217877095,1.3,9.006073241479333,0.0005202634999999999
841.1,1994.4,34457.0,2.9021e-05,39.346,45.134,81.269,46.21,78.767,1167.6,0.013949,79.301,0.50041,supercritical,H2O,C7732185,water,647.0,220.64,17.9,0.0558659217877095,1.3,9.039158810732415,0.0005194758999999999
841.1,2001.7,34508.0,2.8979e-05,39.325,45.126,81.234,46.213,78.692,1169.9,0.013755,79.425,0.50137,supercritical,H2O,C7732185,water,647.0,220.64,17.9,0.0558659217877095,1.3,9.072244379985497,0.0005187241
841.1,2009.1,34559.0,2.8936e-05,39.305,45.118,81.2,46.217,78.618,1172.2,0.013563,79.549,0.50232,supercritical,H2O,C7732185,water,647.0,220.64,17.9,0.0558659217877095,1.3,9.105783176214649,0.0005179544
841.1,2016.4,34609.0,2.8894e-05,39.284,45.11,81.165,46.221,78.544,1174.5,0.013373,79.673,0.50328,supercritical,H2O,C7732185,water,647.0,220.64,17.9,0.0558659217877095,1.3,9.13886874546773,0.0005172026
841.1,2023.8,34659.0,2.8852e-05,39.264,45.103,81.131,46.224,78.471,1176.7,0.013184,79.796,0.50423,supercritical,H2O,C7732185,water,647.0,220.64,17.9,0.0558659217877095,1.3,9.172407541696883,0.0005164508
841.1,2031.1,34709.0,2.8811e-05,39.243,45.095,81.097,46.228,78.398,1179.0,0.012998,79.918,0.50518,supercritical,H2O,C7732185,water,647.0,220.64,17.9,0.0558659217877095,1.3,9.205493110949964,0.0005157168999999999
841.1,2038.5,34759.0,2.877e-05,39.223,45.088,81.063,46.232,78.326,1181.3,0.012813,80.041,0.50613,supercritical,H2O,C7732185,water,647.0,220.64,17.9,0.0558659217877095,1.3,9.239031907179116,0.000514983
841.1,2045.8,34808.0,2.8729e-05,39.203,45.08,81.029,46.236,78.255,1183.5,0.012629,80.162,0.50707,supercritical,H2O,C7732185,water,647.0,220.64,17.9,0.0558659217877095,1.3,9.272117476432198,0.0005142491
841.1,2053.2,34857.0,2.8688e-05,39.183,45.073,80.995,46.239,78.184,1185.8,0.012448,80.284,0.50801,supercritical,H2O,C7732185,water,647.0,220.64,17.9,0.0558659217877095,1.3,9.305656272661349,0.0005135151999999999
841.1,2060.5,34906.0,2.8648e-05,39.163,45.066,80.962,46.243,78.113,1188.0,0.012268,80.405,0.50895,supercritical,H2O,C7732185,water,647.0,220.64,17.9,0.0558659217877095,1.3,9.338741841914432,0.0005127991999999999
841.1,2067.9,34955.0,2.8608e-05,39.143,45.059,80.928,46.247,78.043,1190.2,0.01209,80.526,0.50989,supercritical,H2O,C7732185,water,647.0,220.64,17.9,0.0558659217877095,1.3,9.372280638143584,0.0005120831999999999
841.1,2075.2,35003.0,2.8569e-05,39.124,45.052,80.895,46.251,77.974,1192.5,0.011913,80.647,0.51083,supercritical,H2O,C7732185,water,647.0,220.64,17.9,0.0558659217877095,1.3,9.405366207396664,0.0005113851
841.1,2082.6,35052.0,2.8529e-05,39.104,45.045,80.862,46.255,77.905,1194.7,0.011738,80.767,0.51176,supercritical,H2O,C7732185,water,647.0,220.64,17.9,0.0558659217877095,1.3,9.438905003625816,0.0005106691
841.1,2089.9,35100.0,2.849e-05,39.085,45.039,80.829,46.258,77.837,1196.9,0.011565,80.887,0.51269,supercritical,H2O,C7732185,water,647.0,220.64,17.9,0.0558659217877095,1.3,9.471990572878898,0.000509971
841.1,2097.3,35148.0,2.8452e-05,39.065,45.032,80.797,46.262,77.769,1199.1,0.011393,81.007,0.51362,supercritical,H2O,C7732185,water,647.0,220.64,17.9,0.0558659217877095,1.3,9.50552936910805,0.0005092908
841.1,2104.6,35195.0,2.8413e-05,39.046,45.026,80.764,46.266,77.701,1201.3,0.011223,81.126,0.51454,supercritical,H2O,C7732185,water,647.0,220.64,17.9,0.0558659217877095,1.3,9.538614938361132,0.0005085927