Temperature (K),Pressure (bar),Density (mol/m3),Volume (m3/mol),Internal Energy (kJ/mol),Enthalpy (kJ/mol),Entropy (J/mol*K),Cv (J/mol*K),Cp (J/mol*K),Sound Spd. (m/s),Joule-Thomson (K/bar),Viscosity (uPa*s),Therm. Cond. (W/m*K),Phase,substance,substance_id,substance_name,Tc,Pc,rhoc,Vmc,Tr,Pr,Vmr
247.33,390.02,19011.0,5.2601e-05,2.3036,4.3552,141.17,23.585,47.7,486.95,0.028767,42.915,0.060736,supercritical,O2,C7782447,oxygen,154.58,50.43,13.6,0.07352941176470588,1.6,7.733888558397779,0.0007153735999999999
247.33,391.39,19047.0,5.2501e-05,2.2985,4.3533,141.13,23.589,47.676,487.92,0.028323,43.009,0.060856,supercritical,O2,C7782447,oxygen,154.58,50.43,13.6,0.07352941176470588,1.6,7.761054927622447,0.0007140136
247.33,392.75,19083.0,5.2402e-05,2.2934,4.3515,141.1,23.592,47.651,488.9,0.027883,43.103,0.060977,supercritical,O2,C7782447,oxygen,154.58,50.43,13.6,0.07352941176470588,1.6,7.788023002181242,0.0007126671999999999
247.33,394.12,19119.0,5.2303e-05,2.2883,4.3497,141.06,23.596,47.627,489.87,0.027447,43.197,0.061097,supercritical,O2,C7782447,oxygen,154.58,50.43,13.6,0.07352941176470588,1.6,7.81518937140591,0.0007113207999999999
247.33,395.49,19155.0,5.2206e-05,2.2833,4.3479,141.02,23.599,47.602,490.84,0.027014,43.29,0.061217,supercritical,O2,C7782447,oxygen,154.58,50.43,13.6,0.07352941176470588,1.6,7.842355740630577,0.0007100016
247.33,396.85,19191.0,5.2109e-05,2.2782,4.3462,140.99,23.603,47.578,491.81,0.026585,43.384,0.061337,supercritical,O2,C7782447,oxygen,154.58,50.43,13.6,0.07352941176470588,1.6,7.869323815189372,0.0007086824
247.33,398.21,19226.0,5.2012e-05,2.2732,4.3444,140.95,23.606,47.554,492.77,0.02616,43.477,0.061456,supercritical,O2,C7782447,oxygen,154.58,50.43,13.6,0.07352941176470588,1.6,7.8962918897481655,0.0007073632
247.33,399.58,19261.0,5.1917e-05,2.2683,4.3428,140.92,23.61,47.529,493.74,0.025738,43.571,0.061576,supercritical,O2,C7782447,oxygen,154.58,50.43,13.6,0.07352941176470588,1.6,7.9234582589728335,0.0007060711999999999
247.33,400.94,19297.0,5.1823e-05,2.2633,4.3411,140.88,23.613,47.505,494.7,0.025319,43.664,0.061695,supercritical,O2,C7782447,oxygen,154.58,50.43,13.6,0.07352941176470588,1.6,7.950426333531628,0.0007047928
247.33,402.31,19332.0,5.1729e-05,2.2584,4.3395,140.85,23.617,47.481,495.66,0.024904,43.757,0.061814,supercritical,O2,C7782447,oxygen,154.58,50.43,13.6,0.07352941176470588,1.6,7.977592702756296,0.0007035144
247.33,403.68,19366.0,5.1636e-05,2.2535,4.3379,140.81,23.62,47.457,496.62,0.024493,43.85,0.061933,supercritical,O2,C7782447,oxygen,154.58,50.43,13.6,0.07352941176470588,1.6,8.004759071980963,0.0007022495999999999
247.33,405.04,19401.0,5.1543e-05,2.2486,4.3363,140.78,23.624,47.433,497.58,0.024084,43.942,0.062051,supercritical,O2,C7782447,oxygen,154.58,50.43,13.6,0.07352941176470588,1.6,8.031727146539758,0.0007009847999999999
247.33,406.4,19436.0,5.1452e-05,2.2437,4.3348,140.74,23.627,47.409,498.54,0.023679,44.035,0.06217,supercritical,O2,C7782447,oxygen,154.58,50.43,13.6,0.07352941176470588,1.6,8.058695221098551,0.0006997472
247.33,407.77,19470.0,5.1361e-05,2.2389,4.3332,140.71,23.631,47.385,499.5,0.023278,44.127,0.062288,supercritical,O2,C7782447,oxygen,154.58,50.43,13.6,0.07352941176470588,1.6,8.08586159032322,0.0006985095999999999
247.33,409.13,19504.0,5.1271e-05,2.2341,4.3318,140.67,23.634,47.361,500.45,0.02288,44.22,0.062406,supercritical,O2,C7782447,oxygen,154.58,50.43,13.6,0.07352941176470588,1.6,8.112829664882014,0.0006972856
247.33,410.5,19538.0,5.1182e-05,2.2293,4.3303,140.64,23.638,47.337,501.4,0.022484,44.312,0.062524,supercritical,O2,C7782447,oxygen,154.58,50.43,13.6,0.07352941176470588,1.6,8.139996034106682,0.0006960752
247.33,411.87,19572.0,5.1093e-05,2.2245,4.3288,140.6,23.641,47.313,502.36,0.022093,44.404,0.062642,supercritical,O2,C7782447,oxygen,154.58,50.43,13.6,0.07352941176470588,1.6,8.16716240333135,0.0006948648
247.33,413.23,19606.0,5.1005e-05,2.2198,4.3274,140.57,23.645,47.29,503.31,0.021704,44.496,0.062759,supercritical,O2,C7782447,oxygen,154.58,50.43,13.6,0.07352941176470588,1.6,8.194130477890145,0.0006936679999999999
247.33,414.6,19640.0,5.0918e-05,2.215,4.326,140.54,23.648,47.266,504.25,0.021318,44.588,0.062877,supercritical,O2,C7782447,oxygen,154.58,50.43,13.6,0.07352941176470588,1.6,8.221296847114813,0.0006924848
247.33,415.96,19673.0,5.0831e-05,2.2103,4.3247,140.5,23.652,47.243,505.2,0.020936,44.679,0.062994,supercritical,O2,C7782447,oxygen,154.58,50.43,13.6,0.07352941176470588,1.6,8.248264921673607,0.0006913016
247.33,417.32,19706.0,5.0745e-05,2.2056,4.3233,140.47,23.655,47.219,506.15,0.020556,44.771,0.063111,supercritical,O2,C7782447,oxygen,154.58,50.43,13.6,0.07352941176470588,1.6,8.2752329962324,0.000690132
247.33,418.69,19739.0,5.066e-05,2.2009,4.322,140.44,23.659,47.196,507.09,0.02018,44.862,0.063228,supercritical,O2,C7782447,oxygen,154.58,50.43,13.6,0.07352941176470588,1.6,8.302399365457068,0.000688976
247.33,420.06,19772.0,5.0575e-05,2.1963,4.3207,140.4,23.662,47.172,508.03,0.019807,44.954,0.063344,supercritical,O2,C7782447,oxygen,154.58,50.43,13.6,0.07352941176470588,1.6,8.329565734681736,0.00068782
247.33,421.42,19805.0,5.0491e-05,2.1917,4.3195,140.37,23.666,47.149,508.97,0.019436,45.045,0.063461,supercritical,O2,C7782447,oxygen,154.58,50.43,13.6,0.07352941176470588,1.6,8.356533809240531,0.0006866776
247.33,422.79,19838.0,5.0408e-05,2.1871,4.3182,140.34,23.669,47.125,509.91,0.019069,45.136,0.063577,supercritical,O2,C7782447,oxygen,154.58,50.43,13.6,0.07352941176470588,1.6,8.3837001784652,0.0006855488
247.33,424.15,19871.0,5.0325e-05,2.1825,4.317,140.31,23.672,47.102,510.85,0.018704,45.227,0.063693,supercritical,O2,C7782447,oxygen,154.58,50.43,13.6,0.07352941176470588,1.6,8.410668253023994,0.0006844199999999999
247.33,425.51,19903.0,5.0243e-05,2.1779,4.3158,140.27,23.676,47.079,511.78,0.018343,45.318,0.063809,supercritical,O2,C7782447,oxygen,154.58,50.43,13.6,0.07352941176470588,1.6,8.437636327582787,0.0006833048
247.33,426.88,19935.0,5.0162e-05,2.1734,4.3147,140.24,23.679,47.056,512.72,0.017984,45.409,0.063925,supercritical,O2,C7782447,oxygen,154.58,50.43,13.6,0.07352941176470588,1.6,8.464802696807455,0.0006822032
247.33,428.25,19968.0,5.0081e-05,2.1688,4.3135,140.21,23.683,47.033,513.65,0.017628,45.499,0.064041,supercritical,O2,C7782447,oxygen,154.58,50.43,13.6,0.07352941176470588,1.6,8.491969066032123,0.0006811015999999999
247.33,429.61,20000.0,5.0001e-05,2.1643,4.3124,140.18,23.686,47.01,514.58,0.017275,45.59,0.064157,supercritical,O2,C7782447,oxygen,154.58,50.43,13.6,0.07352941176470588,1.6,8.518937140590918,0.0006800135999999999
247.33,430.98,20032.0,4.9921e-05,2.1598,4.3113,140.14,23.69,46.987,515.51,0.016924,45.68,0.064272,supercritical,O2,C7782447,oxygen,154.58,50.43,13.6,0.07352941176470588,1.6,8.546103509815586,0.0006789255999999999
247.33,432.34,20063.0,4.9842e-05,2.1554,4.3102,140.11,23.693,46.964,516.44,0.016577,45.77,0.064387,supercritical,O2,C7782447,oxygen,154.58,50.43,13.6,0.07352941176470588,1.6,8.57307158437438,0.0006778512
247.33,433.7,20095.0,4.9764e-05,2.1509,4.3092,140.08,23.697,46.942,517.37,0.016232,45.861,0.064502,supercritical,O2,C7782447,oxygen,154.58,50.43,13.6,0.07352941176470588,1.6,8.600039658933175,0.0006767904
247.33,435.07,20126.0,4.9686e-05,2.1465,4.3082,140.05,23.7,46.919,518.29,0.015889,45.951,0.064617,supercritical,O2,C7782447,oxygen,154.58,50.43,13.6,0.07352941176470588,1.6,8.627206028157843,0.0006757295999999999
247.33,436.44,20158.0,4.9608e-05,2.1421,4.3071,140.02,23.704,46.896,519.22,0.01555,46.04,0.064732,supercritical,O2,C7782447,oxygen,154.58,50.43,13.6,0.07352941176470588,1.6,8.654372397382511,0.0006746688
247.33,437.8,20189.0,4.9532e-05,2.1377,4.3062,139.99,23.707,46.874,520.14,0.015212,46.13,0.064846,supercritical,O2,C7782447,oxygen,154.58,50.43,13.6,0.07352941176470588,1.6,8.681340471941304,0.0006736352
247.33,439.17,20220.0,4.9455e-05,2.1333,4.3052,139.95,23.71,46.851,521.06,0.014878,46.22,0.064961,supercritical,O2,C7782447,oxygen,154.58,50.43,13.6,0.07352941176470588,1.6,8.708506841165972,0.000672588
247.33,440.53,20251.0,4.938e-05,2.1289,4.3043,139.92,23.714,46.829,521.98,0.014546,46.31,0.065075,supercritical,O2,C7782447,oxygen,154.58,50.43,13.6,0.07352941176470588,1.6,8.735474915724767,0.000671568
247.33,441.89,20282.0,4.9305e-05,2.1246,4.3033,139.89,23.717,46.807,522.9,0.014217,46.399,0.065189,supercritical,O2,C7782447,oxygen,154.58,50.43,13.6,0.07352941176470588,1.6,8.762442990283562,0.000670548
247.33,443.26,20313.0,4.923e-05,2.1203,4.3024,139.86,23.721,46.785,523.81,0.01389,46.488,0.065303,supercritical,O2,C7782447,oxygen,154.58,50.43,13.6,0.07352941176470588,1.6,8.78960935950823,0.000669528
247.33,444.62,20343.0,4.9156e-05,2.116,4.3016,139.83,23.724,46.762,524.73,0.013566,46.578,0.065417,supercritical,O2,C7782447,oxygen,154.58,50.43,13.6,0.07352941176470588,1.6,8.816577434067023,0.0006685216
247.33,445.99,20374.0,4.9083e-05,2.1117,4.3007,139.8,23.728,46.74,525.64,0.013244,46.667,0.065531,supercritical,O2,C7782447,oxygen,154.58,50.43,13.6,0.07352941176470588,1.6,8.84374380329169,0.0006675288
247.33,447.36,20404.0,4.901e-05,2.1074,4.2999,139.77,23.731,46.718,526.55,0.012924,46.756,0.065644,supercritical,O2,C7782447,oxygen,154.58,50.43,13.6,0.07352941176470588,1.6,8.870910172516359,0.000666536
247.33,448.72,20434.0,4.8937e-05,2.1032,4.2991,139.74,23.734,46.696,527.46,0.012607,46.845,0.065758,supercritical,O2,C7782447,oxygen,154.58,50.43,13.6,0.07352941176470588,1.6,8.897878247075154,0.0006655432000000001
247.33,450.08,20465.0,4.8865e-05,2.0989,4.2983,139.71,23.738,46.674,528.37,0.012293,46.934,0.065871,supercritical,O2,C7782447,oxygen,154.58,50.43,13.6,0.07352941176470588,1.6,8.924846321633948,0.000664564
247.33,451.45,20495.0,4.8794e-05,2.0947,4.2975,139.68,23.741,46.653,529.28,0.01198,47.023,0.065984,supercritical,O2,C7782447,oxygen,154.58,50.43,13.6,0.07352941176470588,1.6,8.952012690858616,0.0006635984
247.33,452.81,20524.0,4.8723e-05,2.0905,4.2967,139.65,23.745,46.631,530.18,0.011671,47.111,0.066097,supercritical,O2,C7782447,oxygen,154.58,50.43,13.6,0.07352941176470588,1.6,8.978980765417411,0.0006626328
247.33,454.18,20554.0,4.8652e-05,2.0863,4.296,139.62,23.748,46.609,531.09,0.011363,47.2,0.06621,supercritical,O2,C7782447,oxygen,154.58,50.43,13.6,0.07352941176470588,1.6,9.00614713464208,0.0006616672
247.33,455.55,20584.0,4.8582e-05,2.0822,4.2953,139.59,23.752,46.588,531.99,0.011058,47.288,0.066323,supercritical,O2,C7782447,oxygen,154.58,50.43,13.6,0.07352941176470588,1.6,9.033313503866747,0.0006607151999999999
247.33,456.91,20613.0,4.8512e-05,2.078,4.2946,139.56,23.755,46.566,532.89,0.010755,47.377,0.066436,supercritical,O2,C7782447,oxygen,154.58,50.43,13.6,0.07352941176470588,1.6,9.06028157842554,0.0006597631999999999
247.33,458.27,20643.0,4.8443e-05,2.0739,4.2939,139.53,23.758,46.545,533.79,0.010454,47.465,0.066548,supercritical,O2,C7782447,oxygen,154.58,50.43,13.6,0.07352941176470588,1.6,9.087249652984335,0.0006588248
247.33,459.64,20672.0,4.8375e-05,2.0698,4.2933,139.5,23.762,46.524,534.69,0.010155,47.553,0.06666,supercritical,O2,C7782447,oxygen,154.58,50.43,13.6,0.07352941176470588,1.6,9.114416022209003,0.0006578999999999999
247.33,461.0,20701.0,4.8307e-05,2.0657,4.2926,139.47,23.765,46.502,535.58,0.009859,47.641,0.066773,supercritical,O2,C7782447,oxygen,154.58,50.43,13.6,0.07352941176470588,1.6,9.141384096767798,0.0006569751999999999
247.33,462.37,20730.0,4.8239e-05,2.0616,4.292,139.44,23.769,46.481,536.48,0.0095648,47.729,0.066885,supercritical,O2,C7782447,oxygen,154.58,50.43,13.6,0.07352941176470588,1.6,9.168550465992466,0.0006560504
247.33,463.74,20759.0,4.8172e-05,2.0575,4.2914,139.41,23.772,46.46,537.37,0.0092728,47.817,0.066997,supercritical,O2,C7782447,oxygen,154.58,50.43,13.6,0.07352941176470588,1.6,9.195716835217134,0.0006551392
247.33,465.1,20788.0,4.8105e-05,2.0535,4.2908,139.38,23.775,46.439,538.26,0.008983,47.905,0.067109,supercritical,O2,C7782447,oxygen,154.58,50.43,13.6,0.07352941176470588,1.6,9.222684909775927,0.000654228
247.33,466.46,20817.0,4.8039e-05,2.0495,4.2903,139.36,23.779,46.418,539.15,0.0086952,47.993,0.06722,supercritical,O2,C7782447,oxygen,154.58,50.43,13.6,0.07352941176470588,1.6,9.249652984334721,0.0006533304
247.33,467.83,20845.0,4.7973e-05,2.0454,4.2897,139.33,23.782,46.397,540.04,0.0084096,48.08,0.067332,supercritical,O2,C7782447,oxygen,154.58,50.43,13.6,0.07352941176470588,1.6,9.27681935355939,0.0006524328
247.33,469.19,20874.0,4.7907e-05,2.0414,4.2892,139.3,23.786,46.376,540.93,0.008126,48.168,0.067443,supercritical,O2,C7782447,oxygen,154.58,50.43,13.6,0.07352941176470588,1.6,9.303787428118184,0.0006515352
247.33,470.56,20902.0,4.7842e-05,2.0375,4.2887,139.27,23.789,46.356,541.82,0.0078446,48.255,0.067555,supercritical,O2,C7782447,oxygen,154.58,50.43,13.6,0.07352941176470588,1.6,9.330953797342852,0.0006506512
247.33,471.93,20930.0,4.7778e-05,2.0335,4.2882,139.24,23.792,46.335,542.7,0.0075651,48.343,0.067666,supercritical,O2,C7782447,oxygen,154.58,50.43,13.6,0.07352941176470588,1.6,9.35812016656752,0.0006497808
247.33,473.29,20958.0,4.7714e-05,2.0295,4.2878,139.21,23.796,46.314,543.58,0.0072877,48.43,0.067777,supercritical,O2,C7782447,oxygen,154.58,50.43,13.6,0.07352941176470588,1.6,9.385088241126315,0.0006489104
247.33,474.65,20986.0,4.765e-05,2.0256,4.2873,139.19,23.799,46.294,544.47,0.0070122,48.517,0.067888,supercritical,O2,C7782447,oxygen,154.58,50.43,13.6,0.07352941176470588,1.6,9.412056315685108,0.00064804
247.33,476.02,21014.0,4.7586e-05,2.0217,4.2869,139.16,23.802,46.274,545.35,0.0067388,48.604,0.067999,supercritical,O2,C7782447,oxygen,154.58,50.43,13.6,0.07352941176470588,1.6,9.439222684909776,0.0006471696
247.33,477.38,21042.0,4.7523e-05,2.0178,4.2865,139.13,23.806,46.253,546.22,0.0064673,48.691,0.068109,supercritical,O2,C7782447,oxygen,154.58,50.43,13.6,0.07352941176470588,1.6,9.46619075946857,0.0006463128
247.33,478.75,21070.0,4.7461e-05,2.0139,4.2861,139.1,23.809,46.233,547.1,0.0061977,48.778,0.06822,supercritical,O2,C7782447,oxygen,154.58,50.43,13.6,0.07352941176470588,1.6,9.493357128693239,0.0006454696
247.33,480.12,21098.0,4.7399e-05,2.01,4.2857,139.07,23.813,46.213,547.98,0.0059301,48.865,0.06833,supercritical,O2,C7782447,oxygen,154.58,50.43,13.6,0.07352941176470588,1.6,9.520523497917907,0.0006446264
247.33,481.48,21125.0,4.7337e-05,2.0061,4.2853,139.05,23.816,46.193,548.85,0.0056644,48.952,0.068441,supercritical,O2,C7782447,oxygen,154.58,50.43,13.6,0.07352941176470588,1.6,9.547491572476702,0.0006437831999999999
247.33,482.85,21153.0,4.7276e-05,2.0023,4.285,139.02,23.819,46.173,549.72,0.0054005,49.038,0.068551,supercritical,O2,C7782447,oxygen,154.58,50.43,13.6,0.07352941176470588,1.6,9.57465794170137,0.0006429536
247.33,484.21,21180.0,4.7215e-05,1.9984,4.2846,138.99,23.823,46.153,550.6,0.0051386,49.125,0.068661,supercritical,O2,C7782447,oxygen,154.58,50.43,13.6,0.07352941176470588,1.6,9.601626016260163,0.000642124
247.33,485.57,21207.0,4.7154e-05,1.9946,4.2843,138.96,23.826,46.133,551.47,0.0048784,49.211,0.068771,supercritical,O2,C7782447,oxygen,154.58,50.43,13.6,0.07352941176470588,1.6,9.628594090818957,0.0006412944000000001
247.33,486.94,21234.0,4.7094e-05,1.9908,4.284,138.94,23.829,46.113,552.33,0.0046201,49.298,0.068881,supercritical,O2,C7782447,oxygen,154.58,50.43,13.6,0.07352941176470588,1.6,9.655760460043625,0.0006404784
247.33,488.31,21261.0,4.7034e-05,1.987,4.2837,138.91,23.833,46.093,553.2,0.0043637,49.384,0.068991,supercritical,O2,C7782447,oxygen,154.58,50.43,13.6,0.07352941176470588,1.6,9.682926829268293,0.0006396624
247.33,489.67,21288.0,4.6975e-05,1.9833,4.2835,138.88,23.836,46.074,554.07,0.004109,49.47,0.069101,supercritical,O2,C7782447,oxygen,154.58,50.43,13.6,0.07352941176470588,1.6,9.709894903827088,0.0006388599999999999
247.33,491.04,21315.0,4.6916e-05,1.9795,4.2832,138.86,23.839,46.054,554.93,0.0038561,49.557,0.06921,supercritical,O2,C7782447,oxygen,154.58,50.43,13.6,0.07352941176470588,1.6,9.737061273051756,0.0006380576
247.33,492.4,21342.0,4.6857e-05,1.9757,4.283,138.83,23.843,46.035,555.79,0.0036049,49.643,0.06932,supercritical,O2,C7782447,oxygen,154.58,50.43,13.6,0.07352941176470588,1.6,9.764029347610549,0.0006372552
247.33,493.76,21368.0,4.6799e-05,1.972,4.2828,138.8,23.846,46.015,556.66,0.0033556,49.729,0.069429,supercritical,O2,C7782447,oxygen,154.58,50.43,13.6,0.07352941176470588,1.6,9.790997422169344,0.0006364664
247.33,495.13,21395.0,4.6741e-05,1.9683,4.2826,138.78,23.849,45.996,557.52,0.0031079,49.815,0.069538,supercritical,O2,C7782447,oxygen,154.58,50.43,13.6,0.07352941176470588,1.6,9.818163791394012,0.0006356776
247.33,496.5,21421.0,4.6683e-05,1.9646,4.2824,138.75,23.853,45.976,558.38,0.0028619,49.9,0.069647,supercritical,O2,C7782447,oxygen,154.58,50.43,13.6,0.07352941176470588,1.6,9.84533016061868,0.0006348888
247.33,497.86,21447.0,4.6626e-05,1.9609,4.2822,138.72,23.856,45.957,559.23,0.0026177,49.986,0.069756,supercritical,O2,C7782447,oxygen,154.58,50.43,13.6,0.07352941176470588,1.6,9.872298235177475,0.0006341135999999999
247.33,499.23,21474.0,4.6569e-05,1.9572,4.282,138.7,23.859,45.938,560.09,0.0023751,50.072,0.069865,supercritical,O2,C7782447,oxygen,154.58,50.43,13.6,0.07352941176470588,1.6,9.899464604402143,0.0006333384
247.33,500.59,21500.0,4.6512e-05,1.9536,4.2819,138.67,23.863,45.919,560.94,0.0021342,50.158,0.069974,supercritical,O2,C7782447,oxygen,154.58,50.43,13.6,0.07352941176470588,1.6,9.926432678960936,0.0006325631999999999
247.33,501.95,21526.0,4.6456e-05,1.9499,4.2818,138.64,23.866,45.9,561.8,0.001895,50.243,0.070083,supercritical,O2,C7782447,oxygen,154.58,50.43,13.6,0.07352941176470588,1.6,9.95340075351973,0.0006318016
247.33,503.32,21552.0,4.64e-05,1.9463,4.2817,138.62,23.869,45.881,562.65,0.0016574,50.329,0.070191,supercritical,O2,C7782447,oxygen,154.58,50.43,13.6,0.07352941176470588,1.6,9.980567122744398,0.00063104
247.33,504.69,21578.0,4.6344e-05,1.9426,4.2816,138.59,23.873,45.862,563.5,0.0014214,50.414,0.0703,supercritical,O2,C7782447,oxygen,154.58,50.43,13.6,0.07352941176470588,1.6,10.007733491969066,0.0006302784
247.33,506.05,21603.0,4.6289e-05,1.939,4.2815,138.57,23.876,45.844,564.35,0.001187,50.499,0.070408,supercritical,O2,C7782447,oxygen,154.58,50.43,13.6,0.07352941176470588,1.6,10.034701566527861,0.0006295303999999999
247.33,507.42,21629.0,4.6234e-05,1.9354,4.2814,138.54,23.879,45.825,565.19,0.00095421,50.585,0.070517,supercritical,O2,C7782447,oxygen,154.58,50.43,13.6,0.07352941176470588,1.6,10.06186793575253,0.0006287824
247.33,508.78,21655.0,4.6179e-05,1.9319,4.2814,138.51,23.883,45.806,566.04,0.00072299,50.67,0.070625,supercritical,O2,C7782447,oxygen,154.58,50.43,13.6,0.07352941176470588,1.6,10.088836010311322,0.0006280344
247.33,510.14,21680.0,4.6125e-05,1.9283,4.2813,138.49,23.886,45.788,566.89,0.00049333,50.755,0.070733,supercritical,O2,C7782447,oxygen,154.58,50.43,13.6,0.07352941176470588,1.6,10.115804084870117,0.0006273
247.33,511.51,21706.0,4.6071e-05,1.9247,4.2813,138.46,23.889,45.769,567.73,0.00026522,50.84,0.070841,supercritical,O2,C7782447,oxygen,154.58,50.43,13.6,0.07352941176470588,1.6,10.142970454094785,0.0006265656
247.33,512.88,21731.0,4.6017e-05,1.9212,4.2813,138.44,23.892,45.751,568.57,3.8641e-05,50.925,0.070949,supercritical,O2,C7782447,oxygen,154.58,50.43,13.6,0.07352941176470588,1.6,10.170136823319453,0.0006258311999999999
247.33,514.24,21756.0,4.5964e-05,1.9176,4.2813,138.41,23.896,45.733,569.41,-0.00018642,51.01,0.071057,supercritical,O2,C7782447,oxygen,154.58,50.43,13.6,0.07352941176470588,1.6,10.197104897878248,0.0006251104
247.33,515.61,21781.0,4.5911e-05,1.9141,4.2813,138.39,23.899,45.715,570.25,-0.00040997,51.095,0.071164,supercritical,O2,C7782447,oxygen,154.58,50.43,13.6,0.07352941176470588,1.6,10.224271267102916,0.0006243896
247.33,516.97,21806.0,4.5858e-05,1.9106,4.2814,138.36,23.902,45.696,571.09,-0.00063204,51.18,0.071272,supercritical,O2,C7782447,oxygen,154.58,50.43,13.6,0.07352941176470588,1.6,10.25123934166171,0.0006236688