Temperature (K),Pressure (bar),Density (mol/m3),Volume (m3/mol),Internal Energy (kJ/mol),Enthalpy (kJ/mol),Entropy (J/mol*K),Cv (J/mol*K),Cp (J/mol*K),Sound Spd. (m/s),Joule-Thomson (K/bar),Viscosity (uPa*s),Therm. Cond. (W/m*K),Phase,substance,substance_id,substance_name,Tc,Pc,rhoc,Vmc,Tr,Pr,Vmr
324.62,261.71,9710.7,0.00010298,5.3673,8.0624,157.53,22.454,38.976,405.28,0.087424,30.139,0.042191,supercritical,O2,C7782447,oxygen,154.58,50.43,13.6,0.07352941176470588,2.1,5.1895697005750545,0.001400528
324.62,263.08,9755.7,0.0001025,5.3611,8.0578,157.48,22.458,39.003,405.85,0.086805,30.198,0.042279,supercritical,O2,C7782447,oxygen,154.58,50.43,13.6,0.07352941176470588,2.1,5.2167360697997225,0.0013939999999999998
324.62,264.44,9800.6,0.00010203,5.3549,8.0531,157.42,22.463,39.03,406.42,0.086189,30.256,0.042368,supercritical,O2,C7782447,oxygen,154.58,50.43,13.6,0.07352941176470588,2.1,5.243704144358516,0.0013876079999999998
324.62,265.81,9845.4,0.00010157,5.3487,8.0486,157.36,22.467,39.057,406.99,0.085575,30.315,0.042456,supercritical,O2,C7782447,oxygen,154.58,50.43,13.6,0.07352941176470588,2.1,5.270870513583184,0.001381352
324.62,267.18,9890.2,0.00010111,5.3426,8.044,157.31,22.471,39.084,407.56,0.084964,30.374,0.042545,supercritical,O2,C7782447,oxygen,154.58,50.43,13.6,0.07352941176470588,2.1,5.298036882807852,0.001375096
324.62,268.54,9934.8,0.00010066,5.3365,8.0395,157.25,22.475,39.11,408.13,0.084356,30.433,0.042634,supercritical,O2,C7782447,oxygen,154.58,50.43,13.6,0.07352941176470588,2.1,5.325004957366647,0.001368976
324.62,269.9,9979.3,0.00010021,5.3304,8.035,157.19,22.479,39.136,408.7,0.08375,30.493,0.042723,supercritical,O2,C7782447,oxygen,154.58,50.43,13.6,0.07352941176470588,2.1,5.351973031925441,0.001362856
324.62,271.27,10024.0,9.9764e-05,5.3243,8.0306,157.14,22.483,39.161,409.28,0.083147,30.552,0.042811,supercritical,O2,C7782447,oxygen,154.58,50.43,13.6,0.07352941176470588,2.1,5.379139401150109,0.0013567904
324.62,272.63,10068.0,9.9325e-05,5.3182,8.0261,157.08,22.487,39.187,409.86,0.082546,30.611,0.0429,supercritical,O2,C7782447,oxygen,154.58,50.43,13.6,0.07352941176470588,2.1,5.406107475708903,0.00135082
324.62,274.0,10112.0,9.889e-05,5.3121,8.0217,157.03,22.492,39.212,410.44,0.081948,30.67,0.042989,supercritical,O2,C7782447,oxygen,154.58,50.43,13.6,0.07352941176470588,2.1,5.433273844933571,0.0013449039999999998
324.62,275.37,10156.0,9.8461e-05,5.3061,8.0174,156.97,22.496,39.237,411.02,0.081352,30.73,0.043078,supercritical,O2,C7782447,oxygen,154.58,50.43,13.6,0.07352941176470588,2.1,5.460440214158239,0.0013390696
324.62,276.73,10200.0,9.8036e-05,5.3001,8.013,156.92,22.5,39.261,411.6,0.080759,30.789,0.043167,supercritical,O2,C7782447,oxygen,154.58,50.43,13.6,0.07352941176470588,2.1,5.487408288717034,0.0013332895999999999
324.62,278.1,10244.0,9.7616e-05,5.294,8.0087,156.86,22.504,39.286,412.18,0.080169,30.849,0.043256,supercritical,O2,C7782447,oxygen,154.58,50.43,13.6,0.07352941176470588,2.1,5.514574657941702,0.0013275776
324.62,279.46,10288.0,9.7201e-05,5.288,8.0044,156.81,22.508,39.31,412.77,0.079581,30.909,0.043346,supercritical,O2,C7782447,oxygen,154.58,50.43,13.6,0.07352941176470588,2.1,5.541542732500496,0.0013219336
324.62,280.82,10332.0,9.679e-05,5.282,8.0002,156.76,22.512,39.333,413.35,0.078996,30.968,0.043435,supercritical,O2,C7782447,oxygen,154.58,50.43,13.6,0.07352941176470588,2.1,5.56851080705929,0.0013163439999999999
324.62,282.19,10375.0,9.6384e-05,5.2761,7.9959,156.7,22.516,39.357,413.94,0.078413,31.028,0.043524,supercritical,O2,C7782447,oxygen,154.58,50.43,13.6,0.07352941176470588,2.1,5.595677176283958,0.0013108224
324.62,283.56,10419.0,9.5982e-05,5.2701,7.9917,156.65,22.52,39.38,414.53,0.077833,31.088,0.043613,supercritical,O2,C7782447,oxygen,154.58,50.43,13.6,0.07352941176470588,2.1,5.622843545508626,0.0013053552
324.62,284.92,10462.0,9.5584e-05,5.2642,7.9876,156.6,22.524,39.403,415.12,0.077255,31.148,0.043703,supercritical,O2,C7782447,oxygen,154.58,50.43,13.6,0.07352941176470588,2.1,5.64981162006742,0.0012999424
324.62,286.29,10505.0,9.519e-05,5.2583,7.9834,156.54,22.528,39.426,415.71,0.076681,31.208,0.043792,supercritical,O2,C7782447,oxygen,154.58,50.43,13.6,0.07352941176470588,2.1,5.676977989292088,0.0012945839999999999
324.62,287.65,10548.0,9.4801e-05,5.2524,7.9793,156.49,22.531,39.448,416.31,0.076108,31.268,0.043882,supercritical,O2,C7782447,oxygen,154.58,50.43,13.6,0.07352941176470588,2.1,5.703946063850882,0.0012892936
324.62,289.01,10591.0,9.4416e-05,5.2465,7.9752,156.44,22.535,39.471,416.9,0.075538,31.328,0.043971,supercritical,O2,C7782447,oxygen,154.58,50.43,13.6,0.07352941176470588,2.1,5.730914138409677,0.0012840576
324.62,290.38,10634.0,9.4034e-05,5.2406,7.9712,156.39,22.539,39.493,417.5,0.074971,31.388,0.044061,supercritical,O2,C7782447,oxygen,154.58,50.43,13.6,0.07352941176470588,2.1,5.758080507634345,0.0012788623999999999
324.62,291.75,10677.0,9.3657e-05,5.2347,7.9671,156.33,22.543,39.514,418.1,0.074407,31.448,0.04415,supercritical,O2,C7782447,oxygen,154.58,50.43,13.6,0.07352941176470588,2.1,5.785246876859013,0.0012737352
324.62,293.11,10720.0,9.3284e-05,5.2289,7.9631,156.28,22.547,39.536,418.7,0.073845,31.508,0.04424,supercritical,O2,C7782447,oxygen,154.58,50.43,13.6,0.07352941176470588,2.1,5.812214951417807,0.0012686624
324.62,294.48,10763.0,9.2915e-05,5.2231,7.9592,156.23,22.551,39.557,419.3,0.073285,31.568,0.044329,supercritical,O2,C7782447,oxygen,154.58,50.43,13.6,0.07352941176470588,2.1,5.839381320642475,0.001263644
324.62,295.84,10805.0,9.2549e-05,5.2173,7.9552,156.18,22.555,39.578,419.9,0.072728,31.628,0.044419,supercritical,O2,C7782447,oxygen,154.58,50.43,13.6,0.07352941176470588,2.1,5.866349395201269,0.0012586664
324.62,297.2,10847.0,9.2187e-05,5.2115,7.9513,156.13,22.558,39.599,420.5,0.072174,31.688,0.044508,supercritical,O2,C7782447,oxygen,154.58,50.43,13.6,0.07352941176470588,2.1,5.893317469760063,0.0012537432
324.62,298.57,10890.0,9.1829e-05,5.2057,7.9474,156.08,22.562,39.619,421.1,0.071622,31.749,0.044598,supercritical,O2,C7782447,oxygen,154.58,50.43,13.6,0.07352941176470588,2.1,5.920483838984731,0.0012488744
324.62,299.94,10932.0,9.1475e-05,5.1999,7.9436,156.03,22.566,39.639,421.71,0.071073,31.809,0.044688,supercritical,O2,C7782447,oxygen,154.58,50.43,13.6,0.07352941176470588,2.1,5.947650208209399,0.00124406
324.62,301.3,10974.0,9.1124e-05,5.1942,7.9397,155.98,22.57,39.659,422.31,0.070526,31.87,0.044777,supercritical,O2,C7782447,oxygen,154.58,50.43,13.6,0.07352941176470588,2.1,5.974618282768194,0.0012392864
324.62,302.67,11016.0,9.0777e-05,5.1884,7.9359,155.93,22.573,39.679,422.92,0.069982,31.93,0.044867,supercritical,O2,C7782447,oxygen,154.58,50.43,13.6,0.07352941176470588,2.1,6.001784651992862,0.0012345672
324.62,304.03,11058.0,9.0433e-05,5.1827,7.9322,155.88,22.577,39.698,423.53,0.06944,31.99,0.044957,supercritical,O2,C7782447,oxygen,154.58,50.43,13.6,0.07352941176470588,2.1,6.028752726551655,0.0012298888
324.62,305.39,11100.0,9.0093e-05,5.177,7.9284,155.83,22.581,39.718,424.14,0.068901,32.051,0.045046,supercritical,O2,C7782447,oxygen,154.58,50.43,13.6,0.07352941176470588,2.1,6.05572080111045,0.0012252648
324.62,306.76,11141.0,8.9756e-05,5.1713,7.9247,155.78,22.585,39.737,424.75,0.068365,32.111,0.045136,supercritical,O2,C7782447,oxygen,154.58,50.43,13.6,0.07352941176470588,2.1,6.082887170335118,0.0012206816
324.62,308.12,11183.0,8.9423e-05,5.1657,7.921,155.73,22.588,39.755,425.36,0.067831,32.172,0.045226,supercritical,O2,C7782447,oxygen,154.58,50.43,13.6,0.07352941176470588,2.1,6.109855244893913,0.0012161528
324.62,309.49,11224.0,8.9093e-05,5.16,7.9173,155.68,22.592,39.774,425.98,0.0673,32.232,0.045316,supercritical,O2,C7782447,oxygen,154.58,50.43,13.6,0.07352941176470588,2.1,6.137021614118581,0.0012116648
324.62,310.86,11266.0,8.8766e-05,5.1544,7.9137,155.63,22.596,39.792,426.59,0.066771,32.293,0.045405,supercritical,O2,C7782447,oxygen,154.58,50.43,13.6,0.07352941176470588,2.1,6.164187983343249,0.0012072176
324.62,312.22,11307.0,8.8442e-05,5.1487,7.9101,155.58,22.599,39.81,427.21,0.066244,32.354,0.045495,supercritical,O2,C7782447,oxygen,154.58,50.43,13.6,0.07352941176470588,2.1,6.191156057902043,0.0012028112
324.62,313.58,11348.0,8.8121e-05,5.1431,7.9065,155.54,22.603,39.828,427.82,0.065721,32.414,0.045585,supercritical,O2,C7782447,oxygen,154.58,50.43,13.6,0.07352941176470588,2.1,6.2181241324608365,0.0011984456
324.62,314.95,11389.0,8.7804e-05,5.1375,7.9029,155.49,22.607,39.846,428.44,0.065199,32.475,0.045674,supercritical,O2,C7782447,oxygen,154.58,50.43,13.6,0.07352941176470588,2.1,6.2452905016855045,0.0011941344
324.62,316.31,11430.0,8.749e-05,5.132,7.8994,155.44,22.61,39.863,429.06,0.06468,32.536,0.045764,supercritical,O2,C7782447,oxygen,154.58,50.43,13.6,0.07352941176470588,2.1,6.272258576244299,0.0011898640000000001
324.62,317.68,11471.0,8.7179e-05,5.1264,7.8959,155.39,22.614,39.88,429.68,0.064164,32.596,0.045854,supercritical,O2,C7782447,oxygen,154.58,50.43,13.6,0.07352941176470588,2.1,6.299424945468967,0.0011856344
324.62,319.05,11511.0,8.6871e-05,5.1208,7.8924,155.34,22.617,39.897,430.3,0.06365,32.657,0.045943,supercritical,O2,C7782447,oxygen,154.58,50.43,13.6,0.07352941176470588,2.1,6.326591314693635,0.0011814456
324.62,320.41,11552.0,8.6565e-05,5.1153,7.889,155.3,22.621,39.914,430.92,0.063139,32.718,0.046033,supercritical,O2,C7782447,oxygen,154.58,50.43,13.6,0.07352941176470588,2.1,6.35355938925243,0.0011772839999999998
324.62,321.77,11592.0,8.6263e-05,5.1098,7.8855,155.25,22.624,39.931,431.54,0.06263,32.778,0.046123,supercritical,O2,C7782447,oxygen,154.58,50.43,13.6,0.07352941176470588,2.1,6.380527463811223,0.0011731768
324.62,323.14,11633.0,8.5964e-05,5.1043,7.8821,155.2,22.628,39.947,432.17,0.062124,32.839,0.046212,supercritical,O2,C7782447,oxygen,154.58,50.43,13.6,0.07352941176470588,2.1,6.407693833035891,0.0011691104
324.62,324.5,11673.0,8.5667e-05,5.0988,7.8788,155.16,22.632,39.963,432.79,0.06162,32.9,0.046302,supercritical,O2,C7782447,oxygen,154.58,50.43,13.6,0.07352941176470588,2.1,6.434661907594686,0.0011650712
324.62,325.87,11713.0,8.5373e-05,5.0933,7.8754,155.11,22.635,39.979,433.42,0.061118,32.961,0.046392,supercritical,O2,C7782447,oxygen,154.58,50.43,13.6,0.07352941176470588,2.1,6.461828276819354,0.0011610728
324.62,327.24,11753.0,8.5082e-05,5.0879,7.8721,155.07,22.639,39.995,434.04,0.060619,33.021,0.046481,supercritical,O2,C7782447,oxygen,154.58,50.43,13.6,0.07352941176470588,2.1,6.488994646044022,0.0011571151999999999
324.62,328.6,11793.0,8.4794e-05,5.0824,7.8688,155.02,22.642,40.01,434.67,0.060123,33.082,0.046571,supercritical,O2,C7782447,oxygen,154.58,50.43,13.6,0.07352941176470588,2.1,6.515962720602817,0.0011531984
324.62,329.96,11833.0,8.4509e-05,5.077,7.8655,154.97,22.646,40.025,435.3,0.059629,33.143,0.04666,supercritical,O2,C7782447,oxygen,154.58,50.43,13.6,0.07352941176470588,2.1,6.54293079516161,0.0011493224
324.62,331.33,11873.0,8.4226e-05,5.0716,7.8623,154.93,22.649,40.04,435.93,0.059137,33.204,0.04675,supercritical,O2,C7782447,oxygen,154.58,50.43,13.6,0.07352941176470588,2.1,6.5700971643862776,0.0011454736
324.62,332.69,11912.0,8.3946e-05,5.0662,7.859,154.88,22.653,40.055,436.56,0.058648,33.264,0.046839,supercritical,O2,C7782447,oxygen,154.58,50.43,13.6,0.07352941176470588,2.1,6.597065238945072,0.0011416656
324.62,334.06,11952.0,8.3668e-05,5.0608,7.8559,154.84,22.656,40.07,437.19,0.058161,33.325,0.046929,supercritical,O2,C7782447,oxygen,154.58,50.43,13.6,0.07352941176470588,2.1,6.62423160816974,0.0011378847999999999
324.62,335.43,11991.0,8.3393e-05,5.0555,7.8527,154.79,22.659,40.084,437.82,0.057677,33.386,0.047018,supercritical,O2,C7782447,oxygen,154.58,50.43,13.6,0.07352941176470588,2.1,6.651397977394408,0.0011341448
324.62,336.79,12031.0,8.312e-05,5.0501,7.8495,154.75,22.663,40.098,438.45,0.057195,33.447,0.047108,supercritical,O2,C7782447,oxygen,154.58,50.43,13.6,0.07352941176470588,2.1,6.678366051953203,0.001130432
324.62,338.15,12070.0,8.285e-05,5.0448,7.8464,154.7,22.666,40.112,439.08,0.056715,33.508,0.047197,supercritical,O2,C7782447,oxygen,154.58,50.43,13.6,0.07352941176470588,2.1,6.705334126511996,0.0011267599999999999
324.62,339.52,12109.0,8.2583e-05,5.0395,7.8433,154.66,22.67,40.126,439.72,0.056238,33.568,0.047286,supercritical,O2,C7782447,oxygen,154.58,50.43,13.6,0.07352941176470588,2.1,6.732500495736664,0.0011231288
324.62,340.88,12148.0,8.2318e-05,5.0342,7.8403,154.62,22.673,40.14,440.35,0.055763,33.629,0.047376,supercritical,O2,C7782447,oxygen,154.58,50.43,13.6,0.07352941176470588,2.1,6.759468570295459,0.0011195247999999998
324.62,342.25,12187.0,8.2055e-05,5.0289,7.8372,154.57,22.676,40.153,440.99,0.055291,33.69,0.047465,supercritical,O2,C7782447,oxygen,154.58,50.43,13.6,0.07352941176470588,2.1,6.786634939520127,0.0011159479999999999
324.62,343.62,12226.0,8.1795e-05,5.0236,7.8342,154.53,22.68,40.166,441.62,0.054821,33.751,0.047554,supercritical,O2,C7782447,oxygen,154.58,50.43,13.6,0.07352941176470588,2.1,6.813801308744795,0.001112412
324.62,344.98,12264.0,8.1537e-05,5.0184,7.8312,154.48,22.683,40.18,442.26,0.054353,33.811,0.047644,supercritical,O2,C7782447,oxygen,154.58,50.43,13.6,0.07352941176470588,2.1,6.84076938330359,0.0011089032
324.62,346.35,12303.0,8.1281e-05,5.0131,7.8282,154.44,22.687,40.192,442.9,0.053888,33.872,0.047733,supercritical,O2,C7782447,oxygen,154.58,50.43,13.6,0.07352941176470588,2.1,6.867935752528258,0.0011054215999999999
324.62,347.71,12341.0,8.1028e-05,5.0079,7.8253,154.4,22.69,40.205,443.54,0.053425,33.933,0.047822,supercritical,O2,C7782447,oxygen,154.58,50.43,13.6,0.07352941176470588,2.1,6.894903827087051,0.0011019807999999999
324.62,349.07,12380.0,8.0777e-05,5.0027,7.8224,154.35,22.693,40.218,444.18,0.052964,33.994,0.047911,supercritical,O2,C7782447,oxygen,154.58,50.43,13.6,0.07352941176470588,2.1,6.921871901645845,0.0010985672
324.62,350.44,12418.0,8.0528e-05,4.9975,7.8195,154.31,22.696,40.23,444.82,0.052506,34.054,0.048,supercritical,O2,C7782447,oxygen,154.58,50.43,13.6,0.07352941176470588,2.1,6.949038270870513,0.0010951808
324.62,351.81,12456.0,8.0281e-05,4.9923,7.8166,154.27,22.7,40.242,445.46,0.05205,34.115,0.048089,supercritical,O2,C7782447,oxygen,154.58,50.43,13.6,0.07352941176470588,2.1,6.976204640095181,0.0010918216
324.62,353.17,12494.0,8.0036e-05,4.9871,7.8138,154.23,22.703,40.254,446.1,0.051596,34.176,0.048178,supercritical,O2,C7782447,oxygen,154.58,50.43,13.6,0.07352941176470588,2.1,7.003172714653976,0.0010884896
324.62,354.54,12532.0,7.9794e-05,4.982,7.8109,154.18,22.706,40.266,446.74,0.051145,34.236,0.048267,supercritical,O2,C7782447,oxygen,154.58,50.43,13.6,0.07352941176470588,2.1,7.030339083878644,0.0010851984
324.62,355.9,12570.0,7.9554e-05,4.9768,7.8081,154.14,22.71,40.277,447.38,0.050696,34.297,0.048356,supercritical,O2,C7782447,oxygen,154.58,50.43,13.6,0.07352941176470588,2.1,7.057307158437438,0.0010819344
324.62,357.26,12608.0,7.9315e-05,4.9717,7.8054,154.1,22.713,40.289,448.03,0.050249,34.358,0.048445,supercritical,O2,C7782447,oxygen,154.58,50.43,13.6,0.07352941176470588,2.1,7.084275232996232,0.001078684
324.62,358.63,12646.0,7.9079e-05,4.9666,7.8026,154.06,22.716,40.3,448.67,0.049804,34.418,0.048533,supercritical,O2,C7782447,oxygen,154.58,50.43,13.6,0.07352941176470588,2.1,7.1114416022209,0.0010754744
324.62,360.0,12683.0,7.8845e-05,4.9615,7.7999,154.02,22.719,40.311,449.31,0.049362,34.479,0.048622,supercritical,O2,C7782447,oxygen,154.58,50.43,13.6,0.07352941176470588,2.1,7.138607971445568,0.0010722919999999999
324.62,361.36,12721.0,7.8613e-05,4.9564,7.7972,153.98,22.723,40.322,449.96,0.048922,34.54,0.048711,supercritical,O2,C7782447,oxygen,154.58,50.43,13.6,0.07352941176470588,2.1,7.165576046004363,0.0010691367999999999
324.62,362.73,12758.0,7.8383e-05,4.9513,7.7945,153.93,22.726,40.332,450.6,0.048484,34.6,0.048799,supercritical,O2,C7782447,oxygen,154.58,50.43,13.6,0.07352941176470588,2.1,7.192742415229031,0.0010660087999999999
324.62,364.09,12795.0,7.8155e-05,4.9463,7.7918,153.89,22.729,40.343,451.25,0.048049,34.661,0.048888,supercritical,O2,C7782447,oxygen,154.58,50.43,13.6,0.07352941176470588,2.1,7.219710489787825,0.001062908
324.62,365.45,12832.0,7.7929e-05,4.9413,7.7892,153.85,22.732,40.353,451.9,0.047616,34.721,0.048976,supercritical,O2,C7782447,oxygen,154.58,50.43,13.6,0.07352941176470588,2.1,7.2466785643466185,0.0010598344
324.62,366.82,12869.0,7.7705e-05,4.9362,7.7866,153.81,22.735,40.363,452.54,0.047185,34.782,0.049065,supercritical,O2,C7782447,oxygen,154.58,50.43,13.6,0.07352941176470588,2.1,7.2738449335712865,0.001056788
324.62,368.19,12906.0,7.7482e-05,4.9312,7.784,153.77,22.739,40.374,453.19,0.046756,34.842,0.049153,supercritical,O2,C7782447,oxygen,154.58,50.43,13.6,0.07352941176470588,2.1,7.3010113027959544,0.0010537552
324.62,369.55,12943.0,7.7262e-05,4.9262,7.7814,153.73,22.742,40.383,453.84,0.046329,34.903,0.049242,supercritical,O2,C7782447,oxygen,154.58,50.43,13.6,0.07352941176470588,2.1,7.327979377354749,0.0010507632
324.62,370.92,12980.0,7.7043e-05,4.9213,7.7789,153.69,22.745,40.393,454.49,0.045905,34.963,0.04933,supercritical,O2,C7782447,oxygen,154.58,50.43,13.6,0.07352941176470588,2.1,7.355145746579417,0.0010477848
324.62,372.28,13016.0,7.6826e-05,4.9163,7.7764,153.65,22.748,40.403,455.14,0.045483,35.024,0.049418,supercritical,O2,C7782447,oxygen,154.58,50.43,13.6,0.07352941176470588,2.1,7.382113821138211,0.0010448336
324.62,373.64,13053.0,7.6611e-05,4.9113,7.7739,153.61,22.751,40.412,455.79,0.045063,35.084,0.049506,supercritical,O2,C7782447,oxygen,154.58,50.43,13.6,0.07352941176470588,2.1,7.409081895697006,0.0010419096
324.62,375.01,13089.0,7.6398e-05,4.9064,7.7714,153.57,22.754,40.421,456.44,0.044645,35.145,0.049594,supercritical,O2,C7782447,oxygen,154.58,50.43,13.6,0.07352941176470588,2.1,7.436248264921674,0.0010390127999999998
324.62,376.38,13126.0,7.6187e-05,4.9015,7.769,153.53,22.758,40.43,457.09,0.044229,35.205,0.049683,supercritical,O2,C7782447,oxygen,154.58,50.43,13.6,0.07352941176470588,2.1,7.463414634146341,0.0010361431999999999
324.62,377.74,13162.0,7.5977e-05,4.8966,7.7665,153.49,22.761,40.439,457.74,0.043815,35.265,0.049771,supercritical,O2,C7782447,oxygen,154.58,50.43,13.6,0.07352941176470588,2.1,7.490382708705136,0.0010332872
324.62,379.11,13198.0,7.5769e-05,4.8917,7.7641,153.45,22.764,40.448,458.39,0.043404,35.326,0.049858,supercritical,O2,C7782447,oxygen,154.58,50.43,13.6,0.07352941176470588,2.1,7.517549077929804,0.0010304583999999999
324.62,380.47,13234.0,7.5563e-05,4.8868,7.7617,153.41,22.767,40.457,459.04,0.042995,35.386,0.049946,supercritical,O2,C7782447,oxygen,154.58,50.43,13.6,0.07352941176470588,2.1,7.5445171524885986,0.0010276568
324.62,381.83,13270.0,7.5358e-05,4.8819,7.7594,153.37,22.77,40.465,459.69,0.042588,35.446,0.050034,supercritical,O2,C7782447,oxygen,154.58,50.43,13.6,0.07352941176470588,2.1,7.5714852270473925,0.0010248688
324.62,383.2,13306.0,7.5156e-05,4.8771,7.757,153.33,22.773,40.473,460.34,0.042183,35.506,0.050122,supercritical,O2,C7782447,oxygen,154.58,50.43,13.6,0.07352941176470588,2.1,7.59865159627206,0.0010221216
324.62,384.56,13341.0,7.4954e-05,4.8722,7.7547,153.3,22.776,40.482,461.0,0.04178,35.567,0.05021,supercritical,O2,C7782447,oxygen,154.58,50.43,13.6,0.07352941176470588,2.1,7.625619670830854,0.0010193744
324.62,385.93,13377.0,7.4755e-05,4.8674,7.7524,153.26,22.779,40.49,461.65,0.041379,35.627,0.050297,supercritical,O2,C7782447,oxygen,154.58,50.43,13.6,0.07352941176470588,2.1,7.652786040055522,0.0010166679999999999
324.62,387.3,13413.0,7.4557e-05,4.8626,7.7501,153.22,22.782,40.498,462.3,0.04098,35.687,0.050385,supercritical,O2,C7782447,oxygen,154.58,50.43,13.6,0.07352941176470588,2.1,7.67995240928019,0.0010139752
324.62,388.66,13448.0,7.436e-05,4.8578,7.7479,153.18,22.785,40.505,462.96,0.040583,35.747,0.050472,supercritical,O2,C7782447,oxygen,154.58,50.43,13.6,0.07352941176470588,2.1,7.706920483838985,0.0010112959999999999
324.62,390.02,13483.0,7.4165e-05,4.853,7.7457,153.14,22.788,40.513,463.61,0.040189,35.807,0.05056,supercritical,O2,C7782447,oxygen,154.58,50.43,13.6,0.07352941176470588,2.1,7.733888558397779,0.001008644