Temperature (K),Pressure (bar),Density (mol/m3),Volume (m3/mol),Internal Energy (kJ/mol),Enthalpy (kJ/mol),Entropy (J/mol*K),Cv (J/mol*K),Cp (J/mol*K),Sound Spd. (m/s),Joule-Thomson (K/bar),Viscosity (uPa*s),Therm. Cond. (W/m*K),Phase,substance,substance_id,substance_name,Tc,Pc,rhoc,Vmc,Tr,Pr,Vmr
139.12,391.39,31982.0,3.1268e-05,-2.3103,-1.0865,112.15,27.481,50.432,800.36,-0.02885,115.49,0.1247,liquid,O2,C7782447,oxygen,154.58,50.43,13.6,0.07352941176470588,0.9,7.761054927622447,0.00042524479999999997
139.12,392.75,31994.0,3.1256e-05,-2.3121,-1.0845,112.14,27.486,50.412,801.1,-0.02891,115.64,0.12481,liquid,O2,C7782447,oxygen,154.58,50.43,13.6,0.07352941176470588,0.9,7.788023002181242,0.0004250816
139.12,394.12,32006.0,3.1244e-05,-2.3139,-1.0825,112.12,27.492,50.391,801.84,-0.02897,115.8,0.12493,liquid,O2,C7782447,oxygen,154.58,50.43,13.6,0.07352941176470588,0.9,7.81518937140591,0.0004249184
139.12,395.49,32018.0,3.1232e-05,-2.3157,-1.0805,112.1,27.497,50.371,802.58,-0.02903,115.95,0.12505,liquid,O2,C7782447,oxygen,154.58,50.43,13.6,0.07352941176470588,0.9,7.842355740630577,0.00042475520000000004
139.12,396.85,32030.0,3.122e-05,-2.3175,-1.0785,112.09,27.503,50.351,803.31,-0.029089,116.11,0.12517,liquid,O2,C7782447,oxygen,154.58,50.43,13.6,0.07352941176470588,0.9,7.869323815189372,0.000424592
139.12,398.21,32042.0,3.1209e-05,-2.3193,-1.0765,112.07,27.508,50.33,804.04,-0.029148,116.26,0.12529,liquid,O2,C7782447,oxygen,154.58,50.43,13.6,0.07352941176470588,0.9,7.8962918897481655,0.00042444239999999995
139.12,399.58,32055.0,3.1197e-05,-2.3211,-1.0745,112.05,27.514,50.31,804.78,-0.029207,116.42,0.1254,liquid,O2,C7782447,oxygen,154.58,50.43,13.6,0.07352941176470588,0.9,7.9234582589728335,0.00042427919999999997
139.12,400.94,32067.0,3.1185e-05,-2.3229,-1.0725,112.04,27.519,50.29,805.51,-0.029265,116.57,0.12552,liquid,O2,C7782447,oxygen,154.58,50.43,13.6,0.07352941176470588,0.9,7.950426333531628,0.000424116
139.12,402.31,32079.0,3.1173e-05,-2.3247,-1.0705,112.02,27.525,50.271,806.23,-0.029323,116.73,0.12564,liquid,O2,C7782447,oxygen,154.58,50.43,13.6,0.07352941176470588,0.9,7.977592702756296,0.0004239528
139.12,403.68,32091.0,3.1162e-05,-2.3264,-1.0685,112.01,27.53,50.251,806.96,-0.029381,116.88,0.12575,liquid,O2,C7782447,oxygen,154.58,50.43,13.6,0.07352941176470588,0.9,8.004759071980963,0.00042380319999999995
139.12,405.04,32102.0,3.115e-05,-2.3282,-1.0665,111.99,27.536,50.231,807.69,-0.029438,117.04,0.12587,liquid,O2,C7782447,oxygen,154.58,50.43,13.6,0.07352941176470588,0.9,8.031727146539758,0.00042364
139.12,406.4,32114.0,3.1139e-05,-2.33,-1.0645,111.97,27.541,50.212,808.41,-0.029496,117.19,0.12599,liquid,O2,C7782447,oxygen,154.58,50.43,13.6,0.07352941176470588,0.9,8.058695221098551,0.00042349040000000003
139.12,407.77,32126.0,3.1127e-05,-2.3317,-1.0624,111.96,27.547,50.192,809.13,-0.029552,117.34,0.1261,liquid,O2,C7782447,oxygen,154.58,50.43,13.6,0.07352941176470588,0.9,8.08586159032322,0.0004233272
139.12,409.13,32138.0,3.1116e-05,-2.3335,-1.0604,111.94,27.552,50.173,809.85,-0.029609,117.5,0.12622,liquid,O2,C7782447,oxygen,154.58,50.43,13.6,0.07352941176470588,0.9,8.112829664882014,0.00042317759999999994
139.12,410.5,32150.0,3.1104e-05,-2.3352,-1.0584,111.93,27.557,50.154,810.57,-0.029665,117.65,0.12634,liquid,O2,C7782447,oxygen,154.58,50.43,13.6,0.07352941176470588,0.9,8.139996034106682,0.00042301439999999996
139.12,411.87,32162.0,3.1093e-05,-2.337,-1.0564,111.91,27.563,50.135,811.29,-0.029721,117.8,0.12645,liquid,O2,C7782447,oxygen,154.58,50.43,13.6,0.07352941176470588,0.9,8.16716240333135,0.0004228648
139.12,413.23,32174.0,3.1081e-05,-2.3387,-1.0543,111.89,27.568,50.116,812.01,-0.029776,117.96,0.12657,liquid,O2,C7782447,oxygen,154.58,50.43,13.6,0.07352941176470588,0.9,8.194130477890145,0.00042270160000000003
139.12,414.6,32185.0,3.107e-05,-2.3404,-1.0523,111.88,27.574,50.097,812.72,-0.029832,118.11,0.12668,liquid,O2,C7782447,oxygen,154.58,50.43,13.6,0.07352941176470588,0.9,8.221296847114813,0.000422552
139.12,415.96,32197.0,3.1059e-05,-2.3422,-1.0502,111.86,27.579,50.078,813.44,-0.029887,118.26,0.1268,liquid,O2,C7782447,oxygen,154.58,50.43,13.6,0.07352941176470588,0.9,8.248264921673607,0.0004224024
139.12,417.32,32209.0,3.1047e-05,-2.3439,-1.0482,111.85,27.584,50.06,814.15,-0.029941,118.42,0.12691,liquid,O2,C7782447,oxygen,154.58,50.43,13.6,0.07352941176470588,0.9,8.2752329962324,0.00042223920000000005
139.12,418.69,32220.0,3.1036e-05,-2.3456,-1.0461,111.83,27.59,50.041,814.86,-0.029996,118.57,0.12703,liquid,O2,C7782447,oxygen,154.58,50.43,13.6,0.07352941176470588,0.9,8.302399365457068,0.0004220896
139.12,420.06,32232.0,3.1025e-05,-2.3473,-1.0441,111.82,27.595,50.023,815.57,-0.03005,118.72,0.12714,liquid,O2,C7782447,oxygen,154.58,50.43,13.6,0.07352941176470588,0.9,8.329565734681736,0.00042194
139.12,421.42,32244.0,3.1014e-05,-2.349,-1.042,111.8,27.601,50.004,816.28,-0.030103,118.88,0.12726,liquid,O2,C7782447,oxygen,154.58,50.43,13.6,0.07352941176470588,0.9,8.356533809240531,0.0004217904
139.12,422.79,32255.0,3.1003e-05,-2.3507,-1.04,111.78,27.606,49.986,816.99,-0.030157,119.03,0.12737,liquid,O2,C7782447,oxygen,154.58,50.43,13.6,0.07352941176470588,0.9,8.3837001784652,0.0004216408
139.12,424.15,32267.0,3.0992e-05,-2.3524,-1.0379,111.77,27.611,49.968,817.69,-0.03021,119.18,0.12749,liquid,O2,C7782447,oxygen,154.58,50.43,13.6,0.07352941176470588,0.9,8.410668253023994,0.0004214911999999999
139.12,425.51,32278.0,3.0981e-05,-2.3541,-1.0359,111.75,27.617,49.95,818.4,-0.030263,119.33,0.1276,liquid,O2,C7782447,oxygen,154.58,50.43,13.6,0.07352941176470588,0.9,8.437636327582787,0.0004213416
139.12,426.88,32290.0,3.097e-05,-2.3558,-1.0338,111.74,27.622,49.932,819.1,-0.030316,119.49,0.12772,liquid,O2,C7782447,oxygen,154.58,50.43,13.6,0.07352941176470588,0.9,8.464802696807455,0.00042119200000000003
139.12,428.25,32301.0,3.0959e-05,-2.3575,-1.0317,111.72,27.627,49.914,819.8,-0.030368,119.64,0.12783,liquid,O2,C7782447,oxygen,154.58,50.43,13.6,0.07352941176470588,0.9,8.491969066032123,0.00042104239999999997
139.12,429.61,32313.0,3.0948e-05,-2.3592,-1.0297,111.71,27.633,49.896,820.5,-0.03042,119.79,0.12795,liquid,O2,C7782447,oxygen,154.58,50.43,13.6,0.07352941176470588,0.9,8.518937140590918,0.0004208928
139.12,430.98,32324.0,3.0937e-05,-2.3609,-1.0276,111.69,27.638,49.879,821.2,-0.030472,119.94,0.12806,liquid,O2,C7782447,oxygen,154.58,50.43,13.6,0.07352941176470588,0.9,8.546103509815586,0.00042074319999999997
139.12,432.34,32336.0,3.0926e-05,-2.3626,-1.0255,111.68,27.643,49.861,821.9,-0.030524,120.1,0.12817,liquid,O2,C7782447,oxygen,154.58,50.43,13.6,0.07352941176470588,0.9,8.57307158437438,0.0004205936
139.12,433.7,32347.0,3.0915e-05,-2.3642,-1.0234,111.66,27.648,49.844,822.6,-0.030575,120.25,0.12829,liquid,O2,C7782447,oxygen,154.58,50.43,13.6,0.07352941176470588,0.9,8.600039658933175,0.00042044399999999996
139.12,435.07,32358.0,3.0904e-05,-2.3659,-1.0214,111.64,27.654,49.826,823.29,-0.030626,120.4,0.1284,liquid,O2,C7782447,oxygen,154.58,50.43,13.6,0.07352941176470588,0.9,8.627206028157843,0.0004202944
139.12,436.44,32370.0,3.0893e-05,-2.3676,-1.0193,111.63,27.659,49.809,823.99,-0.030677,120.55,0.12852,liquid,O2,C7782447,oxygen,154.58,50.43,13.6,0.07352941176470588,0.9,8.654372397382511,0.00042014479999999996
139.12,437.8,32381.0,3.0882e-05,-2.3692,-1.0172,111.61,27.664,49.792,824.68,-0.030727,120.7,0.12863,liquid,O2,C7782447,oxygen,154.58,50.43,13.6,0.07352941176470588,0.9,8.681340471941304,0.0004199952
139.12,439.17,32392.0,3.0872e-05,-2.3709,-1.0151,111.6,27.669,49.775,825.37,-0.030778,120.85,0.12874,liquid,O2,C7782447,oxygen,154.58,50.43,13.6,0.07352941176470588,0.9,8.708506841165972,0.0004198592
139.12,440.53,32403.0,3.0861e-05,-2.3725,-1.013,111.58,27.675,49.758,826.06,-0.030828,121.01,0.12885,liquid,O2,C7782447,oxygen,154.58,50.43,13.6,0.07352941176470588,0.9,8.735474915724767,0.00041970960000000003
139.12,441.89,32415.0,3.085e-05,-2.3742,-1.0109,111.57,27.68,49.741,826.75,-0.030877,121.16,0.12897,liquid,O2,C7782447,oxygen,154.58,50.43,13.6,0.07352941176470588,0.9,8.762442990283562,0.00041956
139.12,443.26,32426.0,3.084e-05,-2.3758,-1.0088,111.55,27.685,49.724,827.44,-0.030927,121.31,0.12908,liquid,O2,C7782447,oxygen,154.58,50.43,13.6,0.07352941176470588,0.9,8.78960935950823,0.000419424
139.12,444.62,32437.0,3.0829e-05,-2.3774,-1.0067,111.54,27.69,49.707,828.12,-0.030976,121.46,0.12919,liquid,O2,C7782447,oxygen,154.58,50.43,13.6,0.07352941176470588,0.9,8.816577434067023,0.0004192744
139.12,445.99,32448.0,3.0818e-05,-2.3791,-1.0046,111.52,27.696,49.69,828.81,-0.031025,121.61,0.1293,liquid,O2,C7782447,oxygen,154.58,50.43,13.6,0.07352941176470588,0.9,8.84374380329169,0.0004191248
139.12,447.36,32459.0,3.0808e-05,-2.3807,-1.0025,111.51,27.701,49.674,829.49,-0.031074,121.76,0.12942,liquid,O2,C7782447,oxygen,154.58,50.43,13.6,0.07352941176470588,0.9,8.870910172516359,0.00041898879999999997
139.12,448.72,32470.0,3.0797e-05,-2.3823,-1.0004,111.49,27.706,49.657,830.17,-0.031122,121.91,0.12953,liquid,O2,C7782447,oxygen,154.58,50.43,13.6,0.07352941176470588,0.9,8.897878247075154,0.00041883919999999997
139.12,450.08,32482.0,3.0787e-05,-2.3839,-0.99828,111.48,27.711,49.641,830.86,-0.031171,122.06,0.12964,liquid,O2,C7782447,oxygen,154.58,50.43,13.6,0.07352941176470588,0.9,8.924846321633948,0.0004187032
139.12,451.45,32493.0,3.0776e-05,-2.3856,-0.99616,111.46,27.716,49.624,831.54,-0.031219,122.21,0.12975,liquid,O2,C7782447,oxygen,154.58,50.43,13.6,0.07352941176470588,0.9,8.952012690858616,0.00041855359999999994
139.12,452.81,32504.0,3.0766e-05,-2.3872,-0.99405,111.45,27.722,49.608,832.22,-0.031266,122.36,0.12986,liquid,O2,C7782447,oxygen,154.58,50.43,13.6,0.07352941176470588,0.9,8.978980765417411,0.0004184176
139.12,454.18,32515.0,3.0755e-05,-2.3888,-0.99193,111.43,27.727,49.592,832.89,-0.031314,122.51,0.12997,liquid,O2,C7782447,oxygen,154.58,50.43,13.6,0.07352941176470588,0.9,9.00614713464208,0.00041826799999999996
139.12,455.55,32526.0,3.0745e-05,-2.3904,-0.98981,111.42,27.732,49.576,833.57,-0.031361,122.66,0.13008,liquid,O2,C7782447,oxygen,154.58,50.43,13.6,0.07352941176470588,0.9,9.033313503866747,0.00041813199999999993
139.12,456.91,32537.0,3.0735e-05,-2.392,-0.98768,111.4,27.737,49.56,834.25,-0.031408,122.82,0.1302,liquid,O2,C7782447,oxygen,154.58,50.43,13.6,0.07352941176470588,0.9,9.06028157842554,0.000417996
139.12,458.27,32548.0,3.0724e-05,-2.3936,-0.98556,111.39,27.742,49.544,834.92,-0.031455,122.97,0.13031,liquid,O2,C7782447,oxygen,154.58,50.43,13.6,0.07352941176470588,0.9,9.087249652984335,0.00041784639999999996
139.12,459.64,32558.0,3.0714e-05,-2.3952,-0.98343,111.37,27.747,49.528,835.59,-0.031502,123.12,0.13042,liquid,O2,C7782447,oxygen,154.58,50.43,13.6,0.07352941176470588,0.9,9.114416022209003,0.00041771039999999993
139.12,461.0,32569.0,3.0704e-05,-2.3968,-0.9813,111.36,27.752,49.512,836.26,-0.031548,123.27,0.13053,liquid,O2,C7782447,oxygen,154.58,50.43,13.6,0.07352941176470588,0.9,9.141384096767798,0.0004175744
139.12,462.37,32580.0,3.0693e-05,-2.3983,-0.97917,111.34,27.757,49.496,836.94,-0.031594,123.42,0.13064,liquid,O2,C7782447,oxygen,154.58,50.43,13.6,0.07352941176470588,0.9,9.168550465992466,0.00041742479999999995
139.12,463.74,32591.0,3.0683e-05,-2.3999,-0.97703,111.33,27.763,49.481,837.61,-0.03164,123.57,0.13075,liquid,O2,C7782447,oxygen,154.58,50.43,13.6,0.07352941176470588,0.9,9.195716835217134,0.00041728879999999993
139.12,465.1,32602.0,3.0673e-05,-2.4015,-0.97489,111.31,27.768,49.465,838.27,-0.031686,123.71,0.13086,liquid,O2,C7782447,oxygen,154.58,50.43,13.6,0.07352941176470588,0.9,9.222684909775927,0.0004171528
139.12,466.46,32613.0,3.0663e-05,-2.4031,-0.97275,111.3,27.773,49.45,838.94,-0.031731,123.86,0.13097,liquid,O2,C7782447,oxygen,154.58,50.43,13.6,0.07352941176470588,0.9,9.249652984334721,0.0004170168
139.12,467.83,32623.0,3.0653e-05,-2.4046,-0.97061,111.28,27.778,49.434,839.61,-0.031776,124.01,0.13108,liquid,O2,C7782447,oxygen,154.58,50.43,13.6,0.07352941176470588,0.9,9.27681935355939,0.00041688079999999995
139.12,469.19,32634.0,3.0643e-05,-2.4062,-0.96846,111.27,27.783,49.419,840.27,-0.031821,124.16,0.13119,liquid,O2,C7782447,oxygen,154.58,50.43,13.6,0.07352941176470588,0.9,9.303787428118184,0.0004167448
139.12,470.56,32645.0,3.0633e-05,-2.4078,-0.96631,111.26,27.788,49.404,840.94,-0.031866,124.31,0.1313,liquid,O2,C7782447,oxygen,154.58,50.43,13.6,0.07352941176470588,0.9,9.330953797342852,0.0004166088
139.12,471.93,32656.0,3.0623e-05,-2.4093,-0.96416,111.24,27.793,49.388,841.6,-0.03191,124.46,0.13141,liquid,O2,C7782447,oxygen,154.58,50.43,13.6,0.07352941176470588,0.9,9.35812016656752,0.0004164728
139.12,473.29,32666.0,3.0613e-05,-2.4109,-0.96201,111.23,27.798,49.373,842.26,-0.031955,124.61,0.13152,liquid,O2,C7782447,oxygen,154.58,50.43,13.6,0.07352941176470588,0.9,9.385088241126315,0.0004163368
139.12,474.65,32677.0,3.0603e-05,-2.4124,-0.95986,111.21,27.803,49.358,842.92,-0.031999,124.76,0.13162,liquid,O2,C7782447,oxygen,154.58,50.43,13.6,0.07352941176470588,0.9,9.412056315685108,0.0004162008
139.12,476.02,32688.0,3.0593e-05,-2.414,-0.9577,111.2,27.808,49.343,843.58,-0.032043,124.91,0.13173,liquid,O2,C7782447,oxygen,154.58,50.43,13.6,0.07352941176470588,0.9,9.439222684909776,0.0004160648
139.12,477.38,32698.0,3.0583e-05,-2.4155,-0.95554,111.18,27.813,49.328,844.24,-0.032086,125.06,0.13184,liquid,O2,C7782447,oxygen,154.58,50.43,13.6,0.07352941176470588,0.9,9.46619075946857,0.00041592880000000004
139.12,478.75,32709.0,3.0573e-05,-2.417,-0.95338,111.17,27.818,49.313,844.9,-0.03213,125.21,0.13195,liquid,O2,C7782447,oxygen,154.58,50.43,13.6,0.07352941176470588,0.9,9.493357128693239,0.0004157928
139.12,480.12,32720.0,3.0563e-05,-2.4186,-0.95122,111.15,27.823,49.299,845.55,-0.032173,125.36,0.13206,liquid,O2,C7782447,oxygen,154.58,50.43,13.6,0.07352941176470588,0.9,9.520523497917907,0.0004156568
139.12,481.48,32730.0,3.0553e-05,-2.4201,-0.94905,111.14,27.828,49.284,846.21,-0.032216,125.51,0.13217,liquid,O2,C7782447,oxygen,154.58,50.43,13.6,0.07352941176470588,0.9,9.547491572476702,0.00041552079999999995
139.12,482.85,32741.0,3.0543e-05,-2.4216,-0.94688,111.13,27.833,49.269,846.86,-0.032259,125.65,0.13227,liquid,O2,C7782447,oxygen,154.58,50.43,13.6,0.07352941176470588,0.9,9.57465794170137,0.00041538480000000003
139.12,484.21,32751.0,3.0533e-05,-2.4232,-0.94471,111.11,27.838,49.255,847.51,-0.032302,125.8,0.13238,liquid,O2,C7782447,oxygen,154.58,50.43,13.6,0.07352941176470588,0.9,9.601626016260163,0.0004152488
139.12,485.57,32762.0,3.0524e-05,-2.4247,-0.94254,111.1,27.843,49.24,848.17,-0.032344,125.95,0.13249,liquid,O2,C7782447,oxygen,154.58,50.43,13.6,0.07352941176470588,0.9,9.628594090818957,0.0004151264
139.12,486.94,32772.0,3.0514e-05,-2.4262,-0.94036,111.08,27.848,49.226,848.82,-0.032386,126.1,0.1326,liquid,O2,C7782447,oxygen,154.58,50.43,13.6,0.07352941176470588,0.9,9.655760460043625,0.0004149904
139.12,488.31,32783.0,3.0504e-05,-2.4277,-0.93819,111.07,27.853,49.212,849.47,-0.032428,126.25,0.13271,liquid,O2,C7782447,oxygen,154.58,50.43,13.6,0.07352941176470588,0.9,9.682926829268293,0.0004148544
139.12,489.67,32793.0,3.0494e-05,-2.4292,-0.93601,111.05,27.858,49.197,850.12,-0.03247,126.4,0.13281,liquid,O2,C7782447,oxygen,154.58,50.43,13.6,0.07352941176470588,0.9,9.709894903827088,0.0004147184
139.12,491.04,32803.0,3.0485e-05,-2.4307,-0.93382,111.04,27.863,49.183,850.76,-0.032512,126.54,0.13292,liquid,O2,C7782447,oxygen,154.58,50.43,13.6,0.07352941176470588,0.9,9.737061273051756,0.000414596
139.12,492.4,32814.0,3.0475e-05,-2.4322,-0.93164,111.03,27.868,49.169,851.41,-0.032553,126.69,0.13303,liquid,O2,C7782447,oxygen,154.58,50.43,13.6,0.07352941176470588,0.9,9.764029347610549,0.00041445999999999996
139.12,493.76,32824.0,3.0465e-05,-2.4337,-0.92945,111.01,27.873,49.155,852.06,-0.032595,126.84,0.13313,liquid,O2,C7782447,oxygen,154.58,50.43,13.6,0.07352941176470588,0.9,9.790997422169344,0.000414324
139.12,495.13,32835.0,3.0456e-05,-2.4352,-0.92727,111.0,27.878,49.141,852.7,-0.032636,126.99,0.13324,liquid,O2,C7782447,oxygen,154.58,50.43,13.6,0.07352941176470588,0.9,9.818163791394012,0.0004142016
139.12,496.5,32845.0,3.0446e-05,-2.4367,-0.92508,110.98,27.883,49.127,853.34,-0.032676,127.14,0.13335,liquid,O2,C7782447,oxygen,154.58,50.43,13.6,0.07352941176470588,0.9,9.84533016061868,0.00041406559999999996
139.12,497.86,32855.0,3.0437e-05,-2.4382,-0.92288,110.97,27.887,49.113,853.99,-0.032717,127.28,0.13345,liquid,O2,C7782447,oxygen,154.58,50.43,13.6,0.07352941176470588,0.9,9.872298235177475,0.00041394319999999996
139.12,499.23,32865.0,3.0427e-05,-2.4397,-0.92069,110.95,27.892,49.099,854.63,-0.032758,127.43,0.13356,liquid,O2,C7782447,oxygen,154.58,50.43,13.6,0.07352941176470588,0.9,9.899464604402143,0.0004138072
139.12,500.59,32876.0,3.0418e-05,-2.4412,-0.91849,110.94,27.897,49.086,855.27,-0.032798,127.58,0.13367,liquid,O2,C7782447,oxygen,154.58,50.43,13.6,0.07352941176470588,0.9,9.926432678960936,0.0004136848
139.12,501.95,32886.0,3.0408e-05,-2.4426,-0.91629,110.93,27.902,49.072,855.91,-0.032838,127.73,0.13377,liquid,O2,C7782447,oxygen,154.58,50.43,13.6,0.07352941176470588,0.9,9.95340075351973,0.0004135488
139.12,503.32,32896.0,3.0399e-05,-2.4441,-0.91409,110.91,27.907,49.058,856.55,-0.032878,127.87,0.13388,liquid,O2,C7782447,oxygen,154.58,50.43,13.6,0.07352941176470588,0.9,9.980567122744398,0.0004134264
139.12,504.69,32906.0,3.0389e-05,-2.4456,-0.91189,110.9,27.912,49.045,857.18,-0.032918,128.02,0.13399,liquid,O2,C7782447,oxygen,154.58,50.43,13.6,0.07352941176470588,0.9,10.007733491969066,0.0004132904
139.12,506.05,32917.0,3.038e-05,-2.4471,-0.90969,110.88,27.917,49.031,857.82,-0.032957,128.17,0.13409,liquid,O2,C7782447,oxygen,154.58,50.43,13.6,0.07352941176470588,0.9,10.034701566527861,0.000413168
139.12,507.42,32927.0,3.037e-05,-2.4485,-0.90748,110.87,27.921,49.018,858.46,-0.032996,128.32,0.1342,liquid,O2,C7782447,oxygen,154.58,50.43,13.6,0.07352941176470588,0.9,10.06186793575253,0.00041303199999999997
139.12,508.78,32937.0,3.0361e-05,-2.45,-0.90527,110.86,27.926,49.004,859.09,-0.033036,128.46,0.1343,liquid,O2,C7782447,oxygen,154.58,50.43,13.6,0.07352941176470588,0.9,10.088836010311322,0.0004129096
139.12,510.14,32947.0,3.0352e-05,-2.4514,-0.90306,110.84,27.931,48.991,859.73,-0.033075,128.61,0.13441,liquid,O2,C7782447,oxygen,154.58,50.43,13.6,0.07352941176470588,0.9,10.115804084870117,0.0004127872
139.12,511.51,32957.0,3.0342e-05,-2.4529,-0.90085,110.83,27.936,48.978,860.36,-0.033113,128.76,0.13451,liquid,O2,C7782447,oxygen,154.58,50.43,13.6,0.07352941176470588,0.9,10.142970454094785,0.00041265119999999995
139.12,512.88,32967.0,3.0333e-05,-2.4543,-0.89863,110.81,27.941,48.965,860.99,-0.033152,128.9,0.13462,liquid,O2,C7782447,oxygen,154.58,50.43,13.6,0.07352941176470588,0.9,10.170136823319453,0.00041252879999999995
139.12,514.24,32977.0,3.0324e-05,-2.4558,-0.89642,110.8,27.946,48.952,861.62,-0.03319,129.05,0.13472,liquid,O2,C7782447,oxygen,154.58,50.43,13.6,0.07352941176470588,0.9,10.197104897878248,0.00041240639999999996
139.12,515.61,32987.0,3.0315e-05,-2.4572,-0.8942,110.79,27.95,48.938,862.25,-0.033229,129.2,0.13483,liquid,O2,C7782447,oxygen,154.58,50.43,13.6,0.07352941176470588,0.9,10.224271267102916,0.000412284
139.12,516.97,32997.0,3.0305e-05,-2.4587,-0.89198,110.77,27.955,48.925,862.88,-0.033267,129.34,0.13493,liquid,O2,C7782447,oxygen,154.58,50.43,13.6,0.07352941176470588,0.9,10.25123934166171,0.000412148
139.12,518.34,33007.0,3.0296e-05,-2.4601,-0.88975,110.76,27.96,48.913,863.51,-0.033305,129.49,0.13504,liquid,O2,C7782447,oxygen,154.58,50.43,13.6,0.07352941176470588,0.9,10.278405710886378,0.0004120256
139.12,519.7,33017.0,3.0287e-05,-2.4615,-0.88753,110.75,27.965,48.9,864.13,-0.033343,129.64,0.13514,liquid,O2,C7782447,oxygen,154.58,50.43,13.6,0.07352941176470588,0.9,10.305373785445173,0.0004119032
139.12,521.07,33027.0,3.0278e-05,-2.463,-0.8853,110.73,27.969,48.887,864.76,-0.03338,129.78,0.13524,liquid,O2,C7782447,oxygen,154.58,50.43,13.6,0.07352941176470588,0.9,10.332540154669841,0.0004117808