Temperature (K),Pressure (bar),Density (mol/m3),Volume (m3/mol),Internal Energy (kJ/mol),Enthalpy (kJ/mol),Entropy (J/mol*K),Cv (J/mol*K),Cp (J/mol*K),Sound Spd. (m/s),Joule-Thomson (K/bar),Viscosity (uPa*s),Therm. Cond. (W/m*K),Phase,substance,substance_id,substance_name,Tc,Pc,rhoc,Vmc,Tr,Pr,Vmr
286.63,305.81,13059.0,7.6574e-05,1.7273,4.069,100.96,14.172,33.967,421.08,0.086921,37.181,0.035719,supercritical,Ar,C7440371,argon,150.86,48.9805,13.41,0.07457121551081282,1.9,6.2435050683435245,0.00102685734
286.63,307.44,13114.0,7.6253e-05,1.7199,4.0642,100.9,14.177,33.98,422.0,0.085922,37.293,0.035832,supercritical,Ar,C7440371,argon,150.86,48.9805,13.41,0.07457121551081282,1.9,6.276783617970417,0.00102255273
286.63,309.07,13169.0,7.5936e-05,1.7125,4.0595,100.84,14.182,33.992,422.91,0.08493,37.405,0.035944,supercritical,Ar,C7440371,argon,150.86,48.9805,13.41,0.07457121551081282,1.9,6.310062167597309,0.00101830176
286.63,310.7,13224.0,7.5622e-05,1.7052,4.0548,100.78,14.187,34.004,423.82,0.083947,37.517,0.036057,supercritical,Ar,C7440371,argon,150.86,48.9805,13.41,0.07457121551081282,1.9,6.343340717224201,0.00101409102
286.63,312.33,13278.0,7.5313e-05,1.6979,4.0502,100.72,14.192,34.016,424.74,0.082971,37.629,0.03617,supercritical,Ar,C7440371,argon,150.86,48.9805,13.41,0.07457121551081282,1.9,6.376619266851094,0.0010099473300000002
286.63,313.96,13332.0,7.5007e-05,1.6907,4.0456,100.66,14.196,34.027,425.65,0.082002,37.741,0.036282,supercritical,Ar,C7440371,argon,150.86,48.9805,13.41,0.07457121551081282,1.9,6.409897816477986,0.00100584387
286.63,315.59,13386.0,7.4706e-05,1.6834,4.0411,100.61,14.201,34.038,426.57,0.081042,37.853,0.036395,supercritical,Ar,C7440371,argon,150.86,48.9805,13.41,0.07457121551081282,1.9,6.443176366104878,0.00100180746
286.63,317.22,13440.0,7.4407e-05,1.6762,4.0366,100.55,14.206,34.048,427.48,0.080089,37.965,0.036507,supercritical,Ar,C7440371,argon,150.86,48.9805,13.41,0.07457121551081282,1.9,6.476454915731772,0.00099779787
286.63,318.85,13493.0,7.4113e-05,1.6691,4.0322,100.49,14.21,34.058,428.4,0.079143,38.077,0.036619,supercritical,Ar,C7440371,argon,150.86,48.9805,13.41,0.07457121551081282,1.9,6.509733465358663,0.00099385533
286.63,320.48,13546.0,7.3822e-05,1.662,4.0278,100.43,14.215,34.067,429.32,0.078205,38.189,0.036732,supercritical,Ar,C7440371,argon,150.86,48.9805,13.41,0.07457121551081282,1.9,6.543012014985556,0.0009899530200000002
286.63,322.11,13599.0,7.3535e-05,1.6549,4.0235,100.38,14.22,34.076,430.24,0.077274,38.301,0.036844,supercritical,Ar,C7440371,argon,150.86,48.9805,13.41,0.07457121551081282,1.9,6.5762905646124485,0.0009861043500000001
286.63,323.74,13652.0,7.3251e-05,1.6478,4.0192,100.32,14.224,34.084,431.16,0.076351,38.413,0.036956,supercritical,Ar,C7440371,argon,150.86,48.9805,13.41,0.07457121551081282,1.9,6.60956911423934,0.00098229591
286.63,325.37,13704.0,7.297e-05,1.6408,4.015,100.26,14.229,34.092,432.08,0.075435,38.525,0.037068,supercritical,Ar,C7440371,argon,150.86,48.9805,13.41,0.07457121551081282,1.9,6.642847663866233,0.0009785277
286.63,327.0,13756.0,7.2693e-05,1.6338,4.0108,100.21,14.234,34.1,433.0,0.074526,38.637,0.03718,supercritical,Ar,C7440371,argon,150.86,48.9805,13.41,0.07457121551081282,1.9,6.6761262134931245,0.0009748131300000002
286.63,328.63,13808.0,7.2419e-05,1.6268,4.0067,100.15,14.238,34.107,433.92,0.073624,38.749,0.037292,supercritical,Ar,C7440371,argon,150.86,48.9805,13.41,0.07457121551081282,1.9,6.709404763120017,0.0009711387900000001
286.63,330.26,13860.0,7.2149e-05,1.6199,4.0027,100.1,14.243,34.114,434.84,0.07273,38.861,0.037403,supercritical,Ar,C7440371,argon,150.86,48.9805,13.41,0.07457121551081282,1.9,6.74268331274691,0.0009675180900000002
286.63,331.89,13912.0,7.1881e-05,1.613,3.9986,100.04,14.247,34.12,435.76,0.071843,38.973,0.037515,supercritical,Ar,C7440371,argon,150.86,48.9805,13.41,0.07457121551081282,1.9,6.775961862373801,0.00096392421
286.63,333.52,13963.0,7.1617e-05,1.6061,3.9947,99.987,14.252,34.127,436.69,0.070962,39.085,0.037626,supercritical,Ar,C7440371,argon,150.86,48.9805,13.41,0.07457121551081282,1.9,6.809240412000694,0.0009603839700000001
286.63,335.15,14014.0,7.1356e-05,1.5993,3.9907,99.933,14.257,34.132,437.61,0.070089,39.197,0.037738,supercritical,Ar,C7440371,argon,150.86,48.9805,13.41,0.07457121551081282,1.9,6.8425189616275865,0.0009568839600000001
286.63,336.78,14065.0,7.1097e-05,1.5925,3.9869,99.879,14.261,34.138,438.53,0.069222,39.309,0.037849,supercritical,Ar,C7440371,argon,150.86,48.9805,13.41,0.07457121551081282,1.9,6.875797511254478,0.0009534107700000001
286.63,338.41,14116.0,7.0842e-05,1.5857,3.983,99.825,14.266,34.143,439.46,0.068363,39.421,0.03796,supercritical,Ar,C7440371,argon,150.86,48.9805,13.41,0.07457121551081282,1.9,6.909076060881372,0.0009499912200000001
286.63,340.04,14166.0,7.059e-05,1.5789,3.9793,99.772,14.27,34.147,440.38,0.06751,39.533,0.038071,supercritical,Ar,C7440371,argon,150.86,48.9805,13.41,0.07457121551081282,1.9,6.942354610508264,0.0009466119000000001
286.63,341.67,14217.0,7.034e-05,1.5722,3.9755,99.718,14.274,34.151,441.3,0.066664,39.645,0.038182,supercritical,Ar,C7440371,argon,150.86,48.9805,13.41,0.07457121551081282,1.9,6.975633160135156,0.0009432594
286.63,343.3,14267.0,7.0094e-05,1.5655,3.9718,99.666,14.279,34.155,442.23,0.065824,39.757,0.038293,supercritical,Ar,C7440371,argon,150.86,48.9805,13.41,0.07457121551081282,1.9,7.008911709762049,0.00093996054
286.63,344.93,14316.0,6.985e-05,1.5589,3.9682,99.613,14.283,34.159,443.15,0.064991,39.868,0.038403,supercritical,Ar,C7440371,argon,150.86,48.9805,13.41,0.07457121551081282,1.9,7.042190259388941,0.0009366885000000001
286.63,346.56,14366.0,6.9609e-05,1.5522,3.9646,99.561,14.288,34.162,444.08,0.064165,39.98,0.038514,supercritical,Ar,C7440371,argon,150.86,48.9805,13.41,0.07457121551081282,1.9,7.075468809015833,0.0009334566900000001
286.63,348.19,14415.0,6.937e-05,1.5456,3.9611,99.509,14.292,34.165,445.0,0.063346,40.092,0.038624,supercritical,Ar,C7440371,argon,150.86,48.9805,13.41,0.07457121551081282,1.9,7.1087473586427254,0.0009302517
286.63,349.82,14465.0,6.9135e-05,1.5391,3.9575,99.457,14.297,34.168,445.93,0.062533,40.203,0.038735,supercritical,Ar,C7440371,argon,150.86,48.9805,13.41,0.07457121551081282,1.9,7.142025908269617,0.00092710035
286.63,351.45,14513.0,6.8902e-05,1.5325,3.9541,99.406,14.301,34.17,446.85,0.061726,40.315,0.038845,supercritical,Ar,C7440371,argon,150.86,48.9805,13.41,0.07457121551081282,1.9,7.17530445789651,0.00092397582
286.63,353.08,14562.0,6.8671e-05,1.526,3.9507,99.355,14.305,34.172,447.78,0.060925,40.426,0.038955,supercritical,Ar,C7440371,argon,150.86,48.9805,13.41,0.07457121551081282,1.9,7.208583007523402,0.00092087811
286.63,354.71,14611.0,6.8443e-05,1.5196,3.9473,99.304,14.31,34.174,448.7,0.060131,40.538,0.039065,supercritical,Ar,C7440371,argon,150.86,48.9805,13.41,0.07457121551081282,1.9,7.241861557150294,0.00091782063
286.63,356.34,14659.0,6.8218e-05,1.5131,3.944,99.254,14.314,34.175,449.63,0.059344,40.649,0.039174,supercritical,Ar,C7440371,argon,150.86,48.9805,13.41,0.07457121551081282,1.9,7.275140106777187,0.0009148033800000002
286.63,357.97,14707.0,6.7995e-05,1.5067,3.9407,99.204,14.319,34.176,450.55,0.058562,40.76,0.039284,supercritical,Ar,C7440371,argon,150.86,48.9805,13.41,0.07457121551081282,1.9,7.30841865640408,0.0009118129500000001
286.63,359.6,14755.0,6.7774e-05,1.5003,3.9374,99.154,14.323,34.177,451.48,0.057787,40.871,0.039393,supercritical,Ar,C7440371,argon,150.86,48.9805,13.41,0.07457121551081282,1.9,7.341697206030972,0.0009088493400000001
286.63,361.23,14803.0,6.7556e-05,1.4939,3.9342,99.104,14.327,34.178,452.4,0.057018,40.982,0.039502,supercritical,Ar,C7440371,argon,150.86,48.9805,13.41,0.07457121551081282,1.9,7.374975755657864,0.0009059259600000001
286.63,362.86,14850.0,6.734e-05,1.4876,3.9311,99.055,14.332,34.178,453.33,0.056255,41.093,0.039611,supercritical,Ar,C7440371,argon,150.86,48.9805,13.41,0.07457121551081282,1.9,7.408254305284757,0.0009030294000000001
286.63,364.49,14897.0,6.7126e-05,1.4813,3.928,99.006,14.336,34.178,454.25,0.055497,41.204,0.03972,supercritical,Ar,C7440371,argon,150.86,48.9805,13.41,0.07457121551081282,1.9,7.441532854911649,0.0009001596600000001
286.63,366.12,14944.0,6.6915e-05,1.475,3.9249,98.957,14.34,34.178,455.17,0.054746,41.314,0.039829,supercritical,Ar,C7440371,argon,150.86,48.9805,13.41,0.07457121551081282,1.9,7.474811404538541,0.0008973301500000002
286.63,367.75,14991.0,6.6706e-05,1.4688,3.9219,98.908,14.344,34.178,456.1,0.054001,41.425,0.039938,supercritical,Ar,C7440371,argon,150.86,48.9805,13.41,0.07457121551081282,1.9,7.508089954165433,0.00089452746
286.63,369.38,15038.0,6.6499e-05,1.4625,3.9189,98.86,14.349,34.177,457.02,0.053262,41.536,0.040046,supercritical,Ar,C7440371,argon,150.86,48.9805,13.41,0.07457121551081282,1.9,7.5413685037923255,0.0008917515900000001
286.63,371.01,15084.0,6.6294e-05,1.4564,3.9159,98.812,14.353,34.176,457.95,0.052528,41.646,0.040155,supercritical,Ar,C7440371,argon,150.86,48.9805,13.41,0.07457121551081282,1.9,7.574647053419218,0.0008890025400000001
286.63,372.64,15130.0,6.6092e-05,1.4502,3.913,98.764,14.357,34.175,458.87,0.051801,41.756,0.040263,supercritical,Ar,C7440371,argon,150.86,48.9805,13.41,0.07457121551081282,1.9,7.60792560304611,0.0008862937200000002
286.63,374.27,15176.0,6.5891e-05,1.4441,3.9102,98.717,14.361,34.173,459.79,0.051078,41.866,0.040371,supercritical,Ar,C7440371,argon,150.86,48.9805,13.41,0.07457121551081282,1.9,7.641204152673002,0.00088359831
286.63,375.9,15222.0,6.5693e-05,1.4379,3.9073,98.669,14.366,34.171,460.72,0.050362,41.976,0.040478,supercritical,Ar,C7440371,argon,150.86,48.9805,13.41,0.07457121551081282,1.9,7.674482702299895,0.00088094313
286.63,377.53,15268.0,6.5497e-05,1.4319,3.9046,98.622,14.37,34.17,461.64,0.049651,42.086,0.040586,supercritical,Ar,C7440371,argon,150.86,48.9805,13.41,0.07457121551081282,1.9,7.707761251926787,0.0008783147700000001
286.63,379.16,15313.0,6.5303e-05,1.4258,3.9018,98.576,14.374,34.167,462.56,0.048946,42.196,0.040694,supercritical,Ar,C7440371,argon,150.86,48.9805,13.41,0.07457121551081282,1.9,7.74103980155368,0.00087571323
286.63,380.79,15359.0,6.511e-05,1.4198,3.8991,98.529,14.378,34.165,463.48,0.048247,42.306,0.040801,supercritical,Ar,C7440371,argon,150.86,48.9805,13.41,0.07457121551081282,1.9,7.774318351180573,0.0008731251000000001
286.63,382.42,15404.0,6.492e-05,1.4138,3.8964,98.483,14.383,34.162,464.4,0.047552,42.416,0.040908,supercritical,Ar,C7440371,argon,150.86,48.9805,13.41,0.07457121551081282,1.9,7.807596900807464,0.0008705772
286.63,384.05,15448.0,6.4731e-05,1.4078,3.8938,98.437,14.387,34.16,465.32,0.046864,42.525,0.041015,supercritical,Ar,C7440371,argon,150.86,48.9805,13.41,0.07457121551081282,1.9,7.840875450434357,0.0008680427100000001
286.63,385.68,15493.0,6.4545e-05,1.4019,3.8912,98.391,14.391,34.157,466.24,0.04618,42.634,0.041122,supercritical,Ar,C7440371,argon,150.86,48.9805,13.41,0.07457121551081282,1.9,7.8741540000612495,0.0008655484500000001
286.63,387.31,15538.0,6.436e-05,1.3959,3.8887,98.345,14.395,34.154,467.16,0.045502,42.744,0.041228,supercritical,Ar,C7440371,argon,150.86,48.9805,13.41,0.07457121551081282,1.9,7.907432549688141,0.0008630676000000001
286.63,388.94,15582.0,6.4177e-05,1.39,3.8862,98.3,14.399,34.15,468.08,0.04483,42.853,0.041335,supercritical,Ar,C7440371,argon,150.86,48.9805,13.41,0.07457121551081282,1.9,7.940711099315034,0.0008606135700000002
286.63,390.57,15626.0,6.3996e-05,1.3842,3.8837,98.255,14.403,34.147,469.0,0.044162,42.962,0.041441,supercritical,Ar,C7440371,argon,150.86,48.9805,13.41,0.07457121551081282,1.9,7.9739896489419255,0.0008581863600000001
286.63,392.2,15670.0,6.3817e-05,1.3783,3.8812,98.21,14.408,34.143,469.92,0.0435,43.071,0.041547,supercritical,Ar,C7440371,argon,150.86,48.9805,13.41,0.07457121551081282,1.9,8.007268198568818,0.0008557859700000001
286.63,393.83,15713.0,6.364e-05,1.3725,3.8788,98.166,14.412,34.139,470.84,0.042843,43.179,0.041653,supercritical,Ar,C7440371,argon,150.86,48.9805,13.41,0.07457121551081282,1.9,8.04054674819571,0.0008534124
286.63,395.46,15757.0,6.3464e-05,1.3667,3.8765,98.121,14.416,34.135,471.76,0.042191,43.288,0.041758,supercritical,Ar,C7440371,argon,150.86,48.9805,13.41,0.07457121551081282,1.9,8.073825297822603,0.00085105224
286.63,397.09,15800.0,6.329e-05,1.361,3.8741,98.077,14.42,34.131,472.67,0.041544,43.396,0.041864,supercritical,Ar,C7440371,argon,150.86,48.9805,13.41,0.07457121551081282,1.9,8.107103847449494,0.0008487189
286.63,398.72,15843.0,6.3118e-05,1.3552,3.8719,98.033,14.424,34.126,473.59,0.040902,43.505,0.041969,supercritical,Ar,C7440371,argon,150.86,48.9805,13.41,0.07457121551081282,1.9,8.140382397076388,0.00084641238
286.63,400.35,15886.0,6.2947e-05,1.3495,3.8696,97.989,14.428,34.122,474.51,0.040266,43.613,0.042074,supercritical,Ar,C7440371,argon,150.86,48.9805,13.41,0.07457121551081282,1.9,8.173660946703281,0.0008441192700000002
286.63,401.98,15929.0,6.2778e-05,1.3438,3.8674,97.946,14.432,34.117,475.42,0.039634,43.721,0.042179,supercritical,Ar,C7440371,argon,150.86,48.9805,13.41,0.07457121551081282,1.9,8.206939496330172,0.0008418529800000001
286.63,403.61,15972.0,6.2611e-05,1.3382,3.8652,97.903,14.436,34.112,476.34,0.039007,43.829,0.042284,supercritical,Ar,C7440371,argon,150.86,48.9805,13.41,0.07457121551081282,1.9,8.240218045957064,0.0008396135100000001
286.63,405.24,16014.0,6.2445e-05,1.3325,3.863,97.86,14.44,34.107,477.25,0.038385,43.937,0.042389,supercritical,Ar,C7440371,argon,150.86,48.9805,13.41,0.07457121551081282,1.9,8.273496595583957,0.0008373874500000001
286.63,406.87,16056.0,6.2281e-05,1.3269,3.8609,97.817,14.445,34.102,478.16,0.037767,44.045,0.042493,supercritical,Ar,C7440371,argon,150.86,48.9805,13.41,0.07457121551081282,1.9,8.30677514521085,0.00083518821
286.63,408.5,16098.0,6.2118e-05,1.3213,3.8588,97.774,14.449,34.096,479.08,0.037155,44.152,0.042597,supercritical,Ar,C7440371,argon,150.86,48.9805,13.41,0.07457121551081282,1.9,8.340053694837742,0.0008330023800000001
286.63,410.13,16140.0,6.1957e-05,1.3158,3.8568,97.732,14.453,34.091,479.99,0.036547,44.26,0.042701,supercritical,Ar,C7440371,argon,150.86,48.9805,13.41,0.07457121551081282,1.9,8.373332244464635,0.0008308433700000001
286.63,411.76,16182.0,6.1797e-05,1.3102,3.8548,97.689,14.457,34.085,480.9,0.035944,44.367,0.042805,supercritical,Ar,C7440371,argon,150.86,48.9805,13.41,0.07457121551081282,1.9,8.406610794091526,0.0008286977700000002
286.63,413.39,16223.0,6.1639e-05,1.3047,3.8528,97.647,14.461,34.079,481.81,0.035345,44.474,0.042909,supercritical,Ar,C7440371,argon,150.86,48.9805,13.41,0.07457121551081282,1.9,8.439889343718418,0.0008265789900000001
286.63,415.02,16265.0,6.1483e-05,1.2992,3.8508,97.606,14.465,34.073,482.72,0.034751,44.581,0.043012,supercritical,Ar,C7440371,argon,150.86,48.9805,13.41,0.07457121551081282,1.9,8.47316789334531,0.00082448703
286.63,416.65,16306.0,6.1327e-05,1.2937,3.8489,97.564,14.469,34.067,483.63,0.034162,44.688,0.043116,supercritical,Ar,C7440371,argon,150.86,48.9805,13.41,0.07457121551081282,1.9,8.506446442972203,0.0008223950700000001
286.63,418.28,16347.0,6.1174e-05,1.2883,3.8471,97.523,14.473,34.061,484.54,0.033577,44.795,0.043219,supercritical,Ar,C7440371,argon,150.86,48.9805,13.41,0.07457121551081282,1.9,8.539724992599096,0.00082034334
286.63,419.91,16388.0,6.1021e-05,1.2829,3.8452,97.481,14.477,34.055,485.44,0.032997,44.902,0.043322,supercritical,Ar,C7440371,argon,150.86,48.9805,13.41,0.07457121551081282,1.9,8.573003542225988,0.00081829161
286.63,421.54,16428.0,6.087e-05,1.2775,3.8434,97.44,14.481,34.048,486.35,0.032421,45.009,0.043424,supercritical,Ar,C7440371,argon,150.86,48.9805,13.41,0.07457121551081282,1.9,8.606282091852881,0.0008162667000000001
286.63,423.17,16469.0,6.0721e-05,1.2721,3.8416,97.4,14.485,34.042,487.26,0.031849,45.115,0.043527,supercritical,Ar,C7440371,argon,150.86,48.9805,13.41,0.07457121551081282,1.9,8.639560641479774,0.00081426861
286.63,424.8,16509.0,6.0572e-05,1.2667,3.8399,97.359,14.489,34.035,488.16,0.031282,45.221,0.043629,supercritical,Ar,C7440371,argon,150.86,48.9805,13.41,0.07457121551081282,1.9,8.672839191106664,0.0008122705200000001
286.63,426.43,16549.0,6.0425e-05,1.2614,3.8381,97.319,14.493,34.028,489.07,0.030719,45.328,0.043732,supercritical,Ar,C7440371,argon,150.86,48.9805,13.41,0.07457121551081282,1.9,8.706117740733557,0.0008102992500000001
286.63,428.06,16589.0,6.028e-05,1.2561,3.8364,97.278,14.497,34.021,489.97,0.030161,45.434,0.043834,supercritical,Ar,C7440371,argon,150.86,48.9805,13.41,0.07457121551081282,1.9,8.73939629036045,0.0008083548000000001
286.63,429.69,16629.0,6.0136e-05,1.2508,3.8348,97.238,14.501,34.014,490.87,0.029606,45.54,0.043935,supercritical,Ar,C7440371,argon,150.86,48.9805,13.41,0.07457121551081282,1.9,8.772674839987342,0.0008064237600000001
286.63,431.32,16669.0,5.9993e-05,1.2456,3.8332,97.199,14.505,34.007,491.77,0.029056,45.646,0.044037,supercritical,Ar,C7440371,argon,150.86,48.9805,13.41,0.07457121551081282,1.9,8.805953389614235,0.0008045061300000001
286.63,432.95,16708.0,5.9851e-05,1.2403,3.8316,97.159,14.509,34.0,492.68,0.02851,45.751,0.044138,supercritical,Ar,C7440371,argon,150.86,48.9805,13.41,0.07457121551081282,1.9,8.839231939241126,0.0008026019100000001
286.63,434.58,16748.0,5.971e-05,1.2351,3.83,97.119,14.513,33.993,493.58,0.027969,45.857,0.04424,supercritical,Ar,C7440371,argon,150.86,48.9805,13.41,0.07457121551081282,1.9,8.872510488868018,0.0008007111000000001
286.63,436.21,16787.0,5.9571e-05,1.2299,3.8285,97.08,14.517,33.985,494.47,0.027431,45.962,0.044341,supercritical,Ar,C7440371,argon,150.86,48.9805,13.41,0.07457121551081282,1.9,8.90578903849491,0.0007988471100000001
286.63,437.84,16826.0,5.9433e-05,1.2247,3.827,97.041,14.521,33.978,495.37,0.026897,46.068,0.044442,supercritical,Ar,C7440371,argon,150.86,48.9805,13.41,0.07457121551081282,1.9,8.939067588121803,0.0007969965300000001
286.63,439.47,16864.0,5.9296e-05,1.2196,3.8255,97.002,14.525,33.97,496.27,0.026368,46.173,0.044542,supercritical,Ar,C7440371,argon,150.86,48.9805,13.41,0.07457121551081282,1.9,8.972346137748696,0.0007951593600000001
286.63,441.1,16903.0,5.9161e-05,1.2145,3.824,96.963,14.529,33.963,497.17,0.025842,46.278,0.044643,supercritical,Ar,C7440371,argon,150.86,48.9805,13.41,0.07457121551081282,1.9,9.005624687375589,0.00079334901
286.63,442.73,16942.0,5.9026e-05,1.2094,3.8226,96.925,14.533,33.955,498.06,0.025321,46.383,0.044743,supercritical,Ar,C7440371,argon,150.86,48.9805,13.41,0.07457121551081282,1.9,9.038903237002481,0.0007915386600000001
286.63,444.36,16980.0,5.8893e-05,1.2043,3.8212,96.887,14.537,33.947,498.96,0.024803,46.488,0.044843,supercritical,Ar,C7440371,argon,150.86,48.9805,13.41,0.07457121551081282,1.9,9.072181786629374,0.0007897551300000001
286.63,445.99,17018.0,5.8761e-05,1.1992,3.8199,96.848,14.541,33.939,499.85,0.024289,46.593,0.044943,supercritical,Ar,C7440371,argon,150.86,48.9805,13.41,0.07457121551081282,1.9,9.105460336256266,0.0007879850100000001
286.63,447.62,17056.0,5.863e-05,1.1942,3.8186,96.81,14.545,33.931,500.74,0.023779,46.698,0.045043,supercritical,Ar,C7440371,argon,150.86,48.9805,13.41,0.07457121551081282,1.9,9.138738885883157,0.0007862283
286.63,449.25,17094.0,5.85e-05,1.1892,3.8173,96.773,14.549,33.923,501.64,0.023273,46.802,0.045143,supercritical,Ar,C7440371,argon,150.86,48.9805,13.41,0.07457121551081282,1.9,9.17201743551005,0.000784485
286.63,450.88,17132.0,5.8371e-05,1.1842,3.816,96.735,14.553,33.915,502.53,0.022771,46.907,0.045242,supercritical,Ar,C7440371,argon,150.86,48.9805,13.41,0.07457121551081282,1.9,9.205295985136942,0.0007827551100000001
286.63,452.51,17169.0,5.8243e-05,1.1792,3.8147,96.697,14.557,33.907,503.42,0.022272,47.011,0.045342,supercritical,Ar,C7440371,argon,150.86,48.9805,13.41,0.07457121551081282,1.9,9.238574534763835,0.00078103863
286.63,454.14,17207.0,5.8116e-05,1.1742,3.8135,96.66,14.561,33.899,504.3,0.021777,47.116,0.045441,supercritical,Ar,C7440371,argon,150.86,48.9805,13.41,0.07457121551081282,1.9,9.271853084390727,0.0007793355600000001