Temperature (K),Pressure (bar),Density (mol/m3),Volume (m3/mol),Internal Energy (kJ/mol),Enthalpy (kJ/mol),Entropy (J/mol*K),Cv (J/mol*K),Cp (J/mol*K),Sound Spd. (m/s),Joule-Thomson (K/bar),Viscosity (uPa*s),Therm. Cond. (W/m*K),Phase,substance,substance_id,substance_name,Tc,Pc,rhoc,Vmc,Tr,Pr,Vmr
425.85,1117.1,20824.0,4.8021e-05,14.907,20.272,62.337,40.93,66.222,831.44,-0.017634,99.996,0.11682,supercritical,CO2,C124389,carbon-dioxide,304.18,73.8,10.6,0.09433962264150944,1.4,15.136856368563684,0.0005090225999999999
425.85,1119.5,20837.0,4.7991e-05,14.902,20.274,62.316,40.934,66.21,832.39,-0.017715,100.13,0.11695,supercritical,CO2,C124389,carbon-dioxide,304.18,73.8,10.6,0.09433962264150944,1.4,15.169376693766939,0.0005087046
425.85,1122.0,20850.0,4.7961e-05,14.896,20.277,62.295,40.939,66.198,833.34,-0.017796,100.27,0.11708,supercritical,CO2,C124389,carbon-dioxide,304.18,73.8,10.6,0.09433962264150944,1.4,15.203252032520325,0.0005083866
425.85,1124.5,20863.0,4.7932e-05,14.89,20.28,62.274,40.944,66.186,834.29,-0.017876,100.41,0.11721,supercritical,CO2,C124389,carbon-dioxide,304.18,73.8,10.6,0.09433962264150944,1.4,15.237127371273713,0.0005080792
425.85,1126.9,20876.0,4.7902e-05,14.885,20.283,62.253,40.949,66.174,835.23,-0.017956,100.55,0.11734,supercritical,CO2,C124389,carbon-dioxide,304.18,73.8,10.6,0.09433962264150944,1.4,15.269647696476966,0.0005077612
425.85,1129.4,20889.0,4.7872e-05,14.879,20.286,62.233,40.954,66.163,836.18,-0.018035,100.69,0.11747,supercritical,CO2,C124389,carbon-dioxide,304.18,73.8,10.6,0.09433962264150944,1.4,15.303523035230354,0.0005074432
425.85,1131.8,20902.0,4.7843e-05,14.874,20.289,62.212,40.959,66.151,837.12,-0.018114,100.83,0.1176,supercritical,CO2,C124389,carbon-dioxide,304.18,73.8,10.6,0.09433962264150944,1.4,15.336043360433605,0.0005071358
425.85,1134.3,20915.0,4.7813e-05,14.868,20.292,62.191,40.964,66.14,838.06,-0.018193,100.96,0.11773,supercritical,CO2,C124389,carbon-dioxide,304.18,73.8,10.6,0.09433962264150944,1.4,15.369918699186991,0.0005068178
425.85,1136.7,20928.0,4.7784e-05,14.863,20.295,62.171,40.969,66.128,839.0,-0.018271,101.1,0.11786,supercritical,CO2,C124389,carbon-dioxide,304.18,73.8,10.6,0.09433962264150944,1.4,15.402439024390246,0.0005065104
425.85,1139.2,20940.0,4.7755e-05,14.858,20.298,62.15,40.974,66.117,839.94,-0.018348,101.24,0.11798,supercritical,CO2,C124389,carbon-dioxide,304.18,73.8,10.6,0.09433962264150944,1.4,15.436314363143632,0.000506203
425.85,1141.7,20953.0,4.7726e-05,14.852,20.301,62.129,40.979,66.105,840.87,-0.018425,101.38,0.11811,supercritical,CO2,C124389,carbon-dioxide,304.18,73.8,10.6,0.09433962264150944,1.4,15.47018970189702,0.0005058955999999999
425.85,1144.1,20966.0,4.7697e-05,14.847,20.304,62.109,40.983,66.094,841.81,-0.018502,101.51,0.11824,supercritical,CO2,C124389,carbon-dioxide,304.18,73.8,10.6,0.09433962264150944,1.4,15.502710027100271,0.0005055882
425.85,1146.6,20979.0,4.7668e-05,14.841,20.307,62.089,40.988,66.083,842.74,-0.018579,101.65,0.11837,supercritical,CO2,C124389,carbon-dioxide,304.18,73.8,10.6,0.09433962264150944,1.4,15.536585365853657,0.0005052807999999999
425.85,1149.0,20991.0,4.7639e-05,14.836,20.31,62.068,40.993,66.071,843.67,-0.018655,101.79,0.1185,supercritical,CO2,C124389,carbon-dioxide,304.18,73.8,10.6,0.09433962264150944,1.4,15.569105691056912,0.0005049734
425.85,1151.5,21004.0,4.761e-05,14.831,20.313,62.048,40.998,66.06,844.6,-0.01873,101.92,0.11863,supercritical,CO2,C124389,carbon-dioxide,304.18,73.8,10.6,0.09433962264150944,1.4,15.602981029810298,0.000504666
425.85,1154.0,21016.0,4.7582e-05,14.825,20.316,62.027,41.003,66.049,845.53,-0.018805,102.06,0.11876,supercritical,CO2,C124389,carbon-dioxide,304.18,73.8,10.6,0.09433962264150944,1.4,15.636856368563686,0.0005043691999999999
425.85,1156.4,21029.0,4.7553e-05,14.82,20.319,62.007,41.008,66.038,846.46,-0.01888,102.2,0.11888,supercritical,CO2,C124389,carbon-dioxide,304.18,73.8,10.6,0.09433962264150944,1.4,15.669376693766939,0.0005040617999999999
425.85,1158.9,21042.0,4.7525e-05,14.815,20.322,61.987,41.013,66.027,847.38,-0.018954,102.34,0.11901,supercritical,CO2,C124389,carbon-dioxide,304.18,73.8,10.6,0.09433962264150944,1.4,15.703252032520327,0.000503765
425.85,1161.3,21054.0,4.7497e-05,14.809,20.325,61.967,41.018,66.016,848.31,-0.019028,102.47,0.11914,supercritical,CO2,C124389,carbon-dioxide,304.18,73.8,10.6,0.09433962264150944,1.4,15.735772357723578,0.0005034682
425.85,1163.8,21067.0,4.7469e-05,14.804,20.328,61.947,41.023,66.005,849.23,-0.019102,102.61,0.11927,supercritical,CO2,C124389,carbon-dioxide,304.18,73.8,10.6,0.09433962264150944,1.4,15.769647696476964,0.0005031714
425.85,1166.2,21079.0,4.7441e-05,14.799,20.331,61.926,41.028,65.994,850.15,-0.019175,102.75,0.11939,supercritical,CO2,C124389,carbon-dioxide,304.18,73.8,10.6,0.09433962264150944,1.4,15.802168021680219,0.0005028746
425.85,1168.7,21091.0,4.7413e-05,14.793,20.334,61.906,41.033,65.984,851.07,-0.019248,102.88,0.11952,supercritical,CO2,C124389,carbon-dioxide,304.18,73.8,10.6,0.09433962264150944,1.4,15.836043360433605,0.0005025778
425.85,1171.2,21104.0,4.7385e-05,14.788,20.338,61.886,41.038,65.973,851.99,-0.01932,103.02,0.11965,supercritical,CO2,C124389,carbon-dioxide,304.18,73.8,10.6,0.09433962264150944,1.4,15.869918699186993,0.0005022809999999999
425.85,1173.6,21116.0,4.7357e-05,14.783,20.341,61.866,41.042,65.962,852.9,-0.019392,103.15,0.11978,supercritical,CO2,C124389,carbon-dioxide,304.18,73.8,10.6,0.09433962264150944,1.4,15.902439024390244,0.0005019842
425.85,1176.1,21128.0,4.733e-05,14.778,20.344,61.846,41.047,65.952,853.82,-0.019464,103.29,0.1199,supercritical,CO2,C124389,carbon-dioxide,304.18,73.8,10.6,0.09433962264150944,1.4,15.93631436314363,0.000501698
425.85,1178.5,21141.0,4.7302e-05,14.772,20.347,61.827,41.052,65.941,854.73,-0.019535,103.43,0.12003,supercritical,CO2,C124389,carbon-dioxide,304.18,73.8,10.6,0.09433962264150944,1.4,15.968834688346885,0.0005014012
425.85,1181.0,21153.0,4.7275e-05,14.767,20.35,61.807,41.057,65.931,855.64,-0.019606,103.56,0.12016,supercritical,CO2,C124389,carbon-dioxide,304.18,73.8,10.6,0.09433962264150944,1.4,16.00271002710027,0.0005011149999999999
425.85,1183.5,21165.0,4.7247e-05,14.762,20.353,61.787,41.062,65.92,856.55,-0.019676,103.7,0.12028,supercritical,CO2,C124389,carbon-dioxide,304.18,73.8,10.6,0.09433962264150944,1.4,16.03658536585366,0.0005008182
425.85,1185.9,21177.0,4.722e-05,14.757,20.357,61.767,41.067,65.91,857.46,-0.019747,103.83,0.12041,supercritical,CO2,C124389,carbon-dioxide,304.18,73.8,10.6,0.09433962264150944,1.4,16.06910569105691,0.0005005319999999999
425.85,1188.4,21190.0,4.7193e-05,14.752,20.36,61.747,41.072,65.899,858.37,-0.019816,103.97,0.12054,supercritical,CO2,C124389,carbon-dioxide,304.18,73.8,10.6,0.09433962264150944,1.4,16.1029810298103,0.0005002458
425.85,1190.8,21202.0,4.7166e-05,14.746,20.363,61.728,41.077,65.889,859.28,-0.019886,104.11,0.12067,supercritical,CO2,C124389,carbon-dioxide,304.18,73.8,10.6,0.09433962264150944,1.4,16.13550135501355,0.0004999596
425.85,1193.3,21214.0,4.7139e-05,14.741,20.366,61.708,41.082,65.879,860.18,-0.019955,104.24,0.12079,supercritical,CO2,C124389,carbon-dioxide,304.18,73.8,10.6,0.09433962264150944,1.4,16.16937669376694,0.0004996734
425.85,1195.7,21226.0,4.7112e-05,14.736,20.369,61.689,41.087,65.868,861.09,-0.020023,104.38,0.12092,supercritical,CO2,C124389,carbon-dioxide,304.18,73.8,10.6,0.09433962264150944,1.4,16.20189701897019,0.0004993872
425.85,1198.2,21238.0,4.7085e-05,14.731,20.373,61.669,41.092,65.858,861.99,-0.020092,104.51,0.12104,supercritical,CO2,C124389,carbon-dioxide,304.18,73.8,10.6,0.09433962264150944,1.4,16.23577235772358,0.000499101
425.85,1200.7,21250.0,4.7059e-05,14.726,20.376,61.649,41.097,65.848,862.89,-0.02016,104.65,0.12117,supercritical,CO2,C124389,carbon-dioxide,304.18,73.8,10.6,0.09433962264150944,1.4,16.269647696476966,0.0004988254
425.85,1203.1,21262.0,4.7032e-05,14.721,20.379,61.63,41.102,65.838,863.79,-0.020227,104.78,0.1213,supercritical,CO2,C124389,carbon-dioxide,304.18,73.8,10.6,0.09433962264150944,1.4,16.302168021680217,0.0004985392
425.85,1205.6,21274.0,4.7006e-05,14.716,20.383,61.611,41.107,65.828,864.69,-0.020295,104.92,0.12142,supercritical,CO2,C124389,carbon-dioxide,304.18,73.8,10.6,0.09433962264150944,1.4,16.336043360433603,0.0004982636
425.85,1208.0,21286.0,4.6979e-05,14.711,20.386,61.591,41.111,65.818,865.58,-0.020361,105.05,0.12155,supercritical,CO2,C124389,carbon-dioxide,304.18,73.8,10.6,0.09433962264150944,1.4,16.368563685636857,0.0004979774
425.85,1210.5,21298.0,4.6953e-05,14.705,20.389,61.572,41.116,65.808,866.48,-0.020428,105.19,0.12167,supercritical,CO2,C124389,carbon-dioxide,304.18,73.8,10.6,0.09433962264150944,1.4,16.402439024390244,0.0004977018
425.85,1213.0,21310.0,4.6927e-05,14.7,20.392,61.552,41.121,65.798,867.37,-0.020494,105.32,0.1218,supercritical,CO2,C124389,carbon-dioxide,304.18,73.8,10.6,0.09433962264150944,1.4,16.436314363143634,0.0004974262
425.85,1215.4,21322.0,4.6901e-05,14.695,20.396,61.533,41.126,65.788,868.26,-0.02056,105.46,0.12193,supercritical,CO2,C124389,carbon-dioxide,304.18,73.8,10.6,0.09433962264150944,1.4,16.468834688346885,0.0004971505999999999
425.85,1217.9,21334.0,4.6875e-05,14.69,20.399,61.514,41.131,65.779,869.15,-0.020626,105.59,0.12205,supercritical,CO2,C124389,carbon-dioxide,304.18,73.8,10.6,0.09433962264150944,1.4,16.502710027100274,0.0004968749999999999
425.85,1220.3,21345.0,4.6849e-05,14.685,20.402,61.495,41.136,65.769,870.04,-0.020691,105.73,0.12218,supercritical,CO2,C124389,carbon-dioxide,304.18,73.8,10.6,0.09433962264150944,1.4,16.535230352303522,0.0004965993999999999
425.85,1222.8,21357.0,4.6823e-05,14.68,20.406,61.476,41.141,65.759,870.93,-0.020756,105.86,0.1223,supercritical,CO2,C124389,carbon-dioxide,304.18,73.8,10.6,0.09433962264150944,1.4,16.56910569105691,0.0004963238
425.85,1225.2,21369.0,4.6797e-05,14.675,20.409,61.456,41.146,65.75,871.82,-0.02082,105.99,0.12243,supercritical,CO2,C124389,carbon-dioxide,304.18,73.8,10.6,0.09433962264150944,1.4,16.601626016260163,0.0004960482
425.85,1227.7,21381.0,4.6771e-05,14.67,20.413,61.437,41.151,65.74,872.7,-0.020885,106.13,0.12255,supercritical,CO2,C124389,carbon-dioxide,304.18,73.8,10.6,0.09433962264150944,1.4,16.635501355013552,0.0004957726
425.85,1230.2,21392.0,4.6746e-05,14.665,20.416,61.418,41.156,65.73,873.59,-0.020949,106.26,0.12268,supercritical,CO2,C124389,carbon-dioxide,304.18,73.8,10.6,0.09433962264150944,1.4,16.66937669376694,0.0004955075999999999
425.85,1232.6,21404.0,4.672e-05,14.66,20.419,61.399,41.161,65.721,874.47,-0.021012,106.4,0.1228,supercritical,CO2,C124389,carbon-dioxide,304.18,73.8,10.6,0.09433962264150944,1.4,16.70189701897019,0.000495232
425.85,1235.1,21416.0,4.6695e-05,14.655,20.423,61.38,41.166,65.711,875.35,-0.021075,106.53,0.12293,supercritical,CO2,C124389,carbon-dioxide,304.18,73.8,10.6,0.09433962264150944,1.4,16.735772357723576,0.0004949669999999999
425.85,1237.5,21427.0,4.6669e-05,14.651,20.426,61.361,41.171,65.702,876.23,-0.021138,106.66,0.12305,supercritical,CO2,C124389,carbon-dioxide,304.18,73.8,10.6,0.09433962264150944,1.4,16.76829268292683,0.0004946914
425.85,1240.0,21439.0,4.6644e-05,14.646,20.43,61.342,41.176,65.693,877.11,-0.021201,106.8,0.12318,supercritical,CO2,C124389,carbon-dioxide,304.18,73.8,10.6,0.09433962264150944,1.4,16.802168021680217,0.0004944264
425.85,1242.5,21450.0,4.6619e-05,14.641,20.433,61.324,41.181,65.683,877.99,-0.021263,106.93,0.1233,supercritical,CO2,C124389,carbon-dioxide,304.18,73.8,10.6,0.09433962264150944,1.4,16.836043360433607,0.0004941613999999999
425.85,1244.9,21462.0,4.6594e-05,14.636,20.436,61.305,41.186,65.674,878.86,-0.021325,107.07,0.12342,supercritical,CO2,C124389,carbon-dioxide,304.18,73.8,10.6,0.09433962264150944,1.4,16.868563685636857,0.0004938964
425.85,1247.4,21474.0,4.6569e-05,14.631,20.44,61.286,41.191,65.665,879.74,-0.021387,107.2,0.12355,supercritical,CO2,C124389,carbon-dioxide,304.18,73.8,10.6,0.09433962264150944,1.4,16.902439024390247,0.0004936313999999999
425.85,1249.8,21485.0,4.6544e-05,14.626,20.443,61.267,41.195,65.656,880.61,-0.021448,107.33,0.12367,supercritical,CO2,C124389,carbon-dioxide,304.18,73.8,10.6,0.09433962264150944,1.4,16.934959349593495,0.0004933664
425.85,1252.3,21496.0,4.6519e-05,14.621,20.447,61.248,41.2,65.646,881.48,-0.02151,107.47,0.1238,supercritical,CO2,C124389,carbon-dioxide,304.18,73.8,10.6,0.09433962264150944,1.4,16.968834688346885,0.0004931013999999999
425.85,1254.7,21508.0,4.6494e-05,14.616,20.45,61.23,41.205,65.637,882.36,-0.02157,107.6,0.12392,supercritical,CO2,C124389,carbon-dioxide,304.18,73.8,10.6,0.09433962264150944,1.4,17.001355013550135,0.0004928364
425.85,1257.2,21519.0,4.647e-05,14.611,20.454,61.211,41.21,65.628,883.22,-0.021631,107.73,0.12405,supercritical,CO2,C124389,carbon-dioxide,304.18,73.8,10.6,0.09433962264150944,1.4,17.035230352303525,0.000492582
425.85,1259.7,21531.0,4.6445e-05,14.607,20.457,61.192,41.215,65.619,884.09,-0.021691,107.87,0.12417,supercritical,CO2,C124389,carbon-dioxide,304.18,73.8,10.6,0.09433962264150944,1.4,17.06910569105691,0.0004923169999999999
425.85,1262.1,21542.0,4.6421e-05,14.602,20.461,61.174,41.22,65.61,884.96,-0.021751,108.0,0.12429,supercritical,CO2,C124389,carbon-dioxide,304.18,73.8,10.6,0.09433962264150944,1.4,17.101626016260163,0.0004920626
425.85,1264.6,21553.0,4.6396e-05,14.597,20.464,61.155,41.225,65.601,885.83,-0.021811,108.13,0.12442,supercritical,CO2,C124389,carbon-dioxide,304.18,73.8,10.6,0.09433962264150944,1.4,17.13550135501355,0.0004917976
425.85,1267.0,21565.0,4.6372e-05,14.592,20.468,61.137,41.23,65.592,886.69,-0.02187,108.26,0.12454,supercritical,CO2,C124389,carbon-dioxide,304.18,73.8,10.6,0.09433962264150944,1.4,17.168021680216803,0.0004915432
425.85,1269.5,21576.0,4.6348e-05,14.587,20.471,61.118,41.235,65.583,887.55,-0.021929,108.4,0.12466,supercritical,CO2,C124389,carbon-dioxide,304.18,73.8,10.6,0.09433962264150944,1.4,17.20189701897019,0.0004912887999999999
425.85,1272.0,21587.0,4.6324e-05,14.583,20.475,61.1,41.24,65.575,888.41,-0.021988,108.53,0.12479,supercritical,CO2,C124389,carbon-dioxide,304.18,73.8,10.6,0.09433962264150944,1.4,17.23577235772358,0.0004910343999999999
425.85,1274.4,21599.0,4.6299e-05,14.578,20.478,61.082,41.245,65.566,889.28,-0.022046,108.66,0.12491,supercritical,CO2,C124389,carbon-dioxide,304.18,73.8,10.6,0.09433962264150944,1.4,17.26829268292683,0.0004907694
425.85,1276.9,21610.0,4.6275e-05,14.573,20.482,61.063,41.25,65.557,890.13,-0.022104,108.8,0.12503,supercritical,CO2,C124389,carbon-dioxide,304.18,73.8,10.6,0.09433962264150944,1.4,17.30216802168022,0.000490515
425.85,1279.3,21621.0,4.6251e-05,14.568,20.485,61.045,41.255,65.548,890.99,-0.022162,108.93,0.12516,supercritical,CO2,C124389,carbon-dioxide,304.18,73.8,10.6,0.09433962264150944,1.4,17.334688346883468,0.0004902605999999999
425.85,1281.8,21632.0,4.6228e-05,14.564,20.489,61.027,41.26,65.54,891.85,-0.02222,109.06,0.12528,supercritical,CO2,C124389,carbon-dioxide,304.18,73.8,10.6,0.09433962264150944,1.4,17.368563685636857,0.0004900168
425.85,1284.2,21643.0,4.6204e-05,14.559,20.493,61.008,41.265,65.531,892.7,-0.022277,109.19,0.1254,supercritical,CO2,C124389,carbon-dioxide,304.18,73.8,10.6,0.09433962264150944,1.4,17.40108401084011,0.0004897624
425.85,1286.7,21654.0,4.618e-05,14.554,20.496,60.99,41.27,65.522,893.56,-0.022334,109.33,0.12553,supercritical,CO2,C124389,carbon-dioxide,304.18,73.8,10.6,0.09433962264150944,1.4,17.4349593495935,0.0004895079999999999
425.85,1289.2,21665.0,4.6156e-05,14.55,20.5,60.972,41.275,65.514,894.41,-0.022391,109.46,0.12565,supercritical,CO2,C124389,carbon-dioxide,304.18,73.8,10.6,0.09433962264150944,1.4,17.468834688346885,0.0004892536
425.85,1291.6,21677.0,4.6133e-05,14.545,20.503,60.954,41.28,65.505,895.26,-0.022448,109.59,0.12577,supercritical,CO2,C124389,carbon-dioxide,304.18,73.8,10.6,0.09433962264150944,1.4,17.501355013550135,0.0004890097999999999
425.85,1294.1,21688.0,4.6109e-05,14.54,20.507,60.936,41.285,65.497,896.11,-0.022504,109.72,0.12589,supercritical,CO2,C124389,carbon-dioxide,304.18,73.8,10.6,0.09433962264150944,1.4,17.535230352303522,0.0004887554
425.85,1296.5,21699.0,4.6086e-05,14.535,20.511,60.917,41.29,65.488,896.96,-0.02256,109.85,0.12602,supercritical,CO2,C124389,carbon-dioxide,304.18,73.8,10.6,0.09433962264150944,1.4,17.567750677506776,0.0004885116
425.85,1299.0,21710.0,4.6063e-05,14.531,20.514,60.899,41.295,65.48,897.81,-0.022616,109.99,0.12614,supercritical,CO2,C124389,carbon-dioxide,304.18,73.8,10.6,0.09433962264150944,1.4,17.601626016260163,0.00048826779999999997
425.85,1301.5,21721.0,4.6039e-05,14.526,20.518,60.881,41.299,65.472,898.66,-0.022671,110.12,0.12626,supercritical,CO2,C124389,carbon-dioxide,304.18,73.8,10.6,0.09433962264150944,1.4,17.635501355013552,0.00048801339999999995
425.85,1303.9,21732.0,4.6016e-05,14.522,20.522,60.863,41.304,65.463,899.5,-0.022726,110.25,0.12638,supercritical,CO2,C124389,carbon-dioxide,304.18,73.8,10.6,0.09433962264150944,1.4,17.668021680216803,0.00048776959999999997
425.85,1306.4,21742.0,4.5993e-05,14.517,20.525,60.845,41.309,65.455,900.35,-0.022781,110.38,0.12651,supercritical,CO2,C124389,carbon-dioxide,304.18,73.8,10.6,0.09433962264150944,1.4,17.701897018970193,0.00048752579999999994
425.85,1308.8,21753.0,4.597e-05,14.512,20.529,60.828,41.314,65.447,901.19,-0.022836,110.51,0.12663,supercritical,CO2,C124389,carbon-dioxide,304.18,73.8,10.6,0.09433962264150944,1.4,17.73441734417344,0.00048728199999999996
425.85,1311.3,21764.0,4.5947e-05,14.508,20.533,60.81,41.319,65.439,902.03,-0.02289,110.65,0.12675,supercritical,CO2,C124389,carbon-dioxide,304.18,73.8,10.6,0.09433962264150944,1.4,17.76829268292683,0.0004870382
425.85,1313.7,21775.0,4.5924e-05,14.503,20.536,60.792,41.324,65.43,902.87,-0.022944,110.78,0.12687,supercritical,CO2,C124389,carbon-dioxide,304.18,73.8,10.6,0.09433962264150944,1.4,17.80081300813008,0.0004867944
425.85,1316.2,21786.0,4.5901e-05,14.498,20.54,60.774,41.329,65.422,903.71,-0.022998,110.91,0.12699,supercritical,CO2,C124389,carbon-dioxide,304.18,73.8,10.6,0.09433962264150944,1.4,17.83468834688347,0.00048655059999999997
425.85,1318.7,21797.0,4.5878e-05,14.494,20.544,60.756,41.334,65.414,904.55,-0.023052,111.04,0.12712,supercritical,CO2,C124389,carbon-dioxide,304.18,73.8,10.6,0.09433962264150944,1.4,17.868563685636857,0.00048630679999999994
425.85,1321.1,21808.0,4.5856e-05,14.489,20.547,60.738,41.339,65.406,905.39,-0.023105,111.17,0.12724,supercritical,CO2,C124389,carbon-dioxide,304.18,73.8,10.6,0.09433962264150944,1.4,17.90108401084011,0.0004860736
425.85,1323.6,21818.0,4.5833e-05,14.485,20.551,60.721,41.344,65.398,906.22,-0.023158,111.3,0.12736,supercritical,CO2,C124389,carbon-dioxide,304.18,73.8,10.6,0.09433962264150944,1.4,17.934959349593495,0.00048582979999999996
425.85,1326.0,21829.0,4.581e-05,14.48,20.555,60.703,41.349,65.39,907.06,-0.023211,111.43,0.12748,supercritical,CO2,C124389,carbon-dioxide,304.18,73.8,10.6,0.09433962264150944,1.4,17.96747967479675,0.00048558599999999993
425.85,1328.5,21840.0,4.5788e-05,14.476,20.559,60.685,41.354,65.382,907.89,-0.023264,111.56,0.1276,supercritical,CO2,C124389,carbon-dioxide,304.18,73.8,10.6,0.09433962264150944,1.4,18.001355013550135,0.0004853528
425.85,1331.0,21851.0,4.5765e-05,14.471,20.562,60.668,41.359,65.374,908.72,-0.023316,111.7,0.12772,supercritical,CO2,C124389,carbon-dioxide,304.18,73.8,10.6,0.09433962264150944,1.4,18.035230352303525,0.00048510899999999995
425.85,1333.4,21861.0,4.5743e-05,14.467,20.566,60.65,41.364,65.366,909.56,-0.023368,111.83,0.12785,supercritical,CO2,C124389,carbon-dioxide,304.18,73.8,10.6,0.09433962264150944,1.4,18.067750677506776,0.00048487579999999996
425.85,1335.9,21872.0,4.5721e-05,14.462,20.57,60.632,41.369,65.358,910.39,-0.02342,111.96,0.12797,supercritical,CO2,C124389,carbon-dioxide,304.18,73.8,10.6,0.09433962264150944,1.4,18.101626016260166,0.00048464259999999996
425.85,1338.3,21883.0,4.5699e-05,14.458,20.574,60.615,41.374,65.351,911.21,-0.023472,112.09,0.12809,supercritical,CO2,C124389,carbon-dioxide,304.18,73.8,10.6,0.09433962264150944,1.4,18.134146341463413,0.00048440939999999996