Temperature (K),Pressure (bar),Density (mol/m3),Volume (m3/mol),Internal Energy (kJ/mol),Enthalpy (kJ/mol),Entropy (J/mol*K),Cv (J/mol*K),Cp (J/mol*K),Sound Spd. (m/s),Joule-Thomson (K/bar),Viscosity (uPa*s),Therm. Cond. (W/m*K),Phase,substance,substance_id,substance_name,Tc,Pc,rhoc,Vmc,Tr,Pr,Vmr
185.5,1.0,65.086,0.015364,3.8353,5.3717,191.23,20.84,29.29,259.28,0.62792,13.777,0.01697,vapor,O2,C7782447,oxygen,154.58,50.43,13.6,0.07352941176470588,1.2,0.019829466587348802,0.20895039999999998
185.5,2.365,154.74,0.0064625,3.8181,5.3465,183.98,20.889,29.529,258.67,0.62774,13.81,0.017071,vapor,O2,C7782447,oxygen,154.58,50.43,13.6,0.07352941176470588,1.2,0.04689668847907992,0.08789
185.5,3.73,245.35,0.0040759,3.8008,5.3211,180.1,20.938,29.774,258.05,0.62751,13.844,0.017174,vapor,O2,C7782447,oxygen,154.58,50.43,13.6,0.07352941176470588,1.2,0.07396391037081103,0.05543224
185.5,5.095,336.93,0.002968,3.7833,5.2955,177.41,20.988,30.026,257.44,0.62724,13.878,0.017278,vapor,O2,C7782447,oxygen,154.58,50.43,13.6,0.07352941176470588,1.2,0.10103113226254214,0.0403648
185.5,6.46,429.52,0.0023282,3.7656,5.2697,175.34,21.039,30.285,256.83,0.62693,13.912,0.017384,vapor,O2,C7782447,oxygen,154.58,50.43,13.6,0.07352941176470588,1.2,0.12809835415427326,0.03166352
185.5,7.825,523.13,0.0019116,3.7478,5.2436,173.65,21.09,30.551,256.21,0.62657,13.947,0.017492,vapor,O2,C7782447,oxygen,154.58,50.43,13.6,0.07352941176470588,1.2,0.15516557604600437,0.02599776
185.5,9.19,617.79,0.0016187,3.7298,5.2174,172.22,21.142,30.825,255.6,0.62616,13.982,0.017602,vapor,O2,C7782447,oxygen,154.58,50.43,13.6,0.07352941176470588,1.2,0.18223279793773547,0.02201432
185.5,10.555,713.53,0.0014015,3.7117,5.1909,170.97,21.194,31.107,254.99,0.62571,14.018,0.017713,vapor,O2,C7782447,oxygen,154.58,50.43,13.6,0.07352941176470588,1.2,0.20930001982946658,0.019060399999999998
185.5,11.92,810.38,0.001234,3.6934,5.1643,169.86,21.248,31.396,254.38,0.6252,14.055,0.017827,vapor,O2,C7782447,oxygen,154.58,50.43,13.6,0.07352941176470588,1.2,0.2363672417211977,0.0167824
185.5,13.285,908.36,0.0011009,3.6748,5.1374,168.85,21.302,31.695,253.77,0.62463,14.092,0.017942,vapor,O2,C7782447,oxygen,154.58,50.43,13.6,0.07352941176470588,1.2,0.2634344636129288,0.014972239999999998
185.5,14.65,1007.5,0.00099255,3.6561,5.1102,167.94,21.356,32.002,253.16,0.62401,14.13,0.01806,vapor,O2,C7782447,oxygen,154.58,50.43,13.6,0.07352941176470588,1.2,0.29050168550465993,0.01349868
185.5,16.015,1107.8,0.00090266,3.6372,5.0828,167.09,21.411,32.318,252.56,0.62334,14.169,0.01818,vapor,O2,C7782447,oxygen,154.58,50.43,13.6,0.07352941176470588,1.2,0.31756890739639104,0.012276176
185.5,17.38,1209.4,0.00082685,3.6181,5.0552,166.31,21.467,32.644,251.95,0.6226,14.208,0.018302,vapor,O2,C7782447,oxygen,154.58,50.43,13.6,0.07352941176470588,1.2,0.34463612928812215,0.011245159999999999
185.5,18.745,1312.2,0.00076207,3.5989,5.0274,165.58,21.524,32.98,251.35,0.6218,14.249,0.018427,vapor,O2,C7782447,oxygen,154.58,50.43,13.6,0.07352941176470588,1.2,0.37170335117985326,0.010364152
185.5,20.11,1416.3,0.00070605,3.5794,4.9992,164.88,21.581,33.326,250.75,0.62094,14.29,0.018555,vapor,O2,C7782447,oxygen,154.58,50.43,13.6,0.07352941176470588,1.2,0.39877057307158437,0.00960228
185.5,21.475,1521.8,0.00065713,3.5597,4.9709,164.23,21.639,33.683,250.16,0.62001,14.332,0.018686,vapor,O2,C7782447,oxygen,154.58,50.43,13.6,0.07352941176470588,1.2,0.42583779496331553,0.008936968
185.5,22.84,1628.6,0.00061404,3.5397,4.9422,163.61,21.698,34.051,249.56,0.61901,14.375,0.018819,vapor,O2,C7782447,oxygen,154.58,50.43,13.6,0.07352941176470588,1.2,0.4529050168550466,0.008350944
185.5,24.205,1736.7,0.00057579,3.5196,4.9133,163.02,21.758,34.431,248.97,0.61794,14.42,0.018955,vapor,O2,C7782447,oxygen,154.58,50.43,13.6,0.07352941176470588,1.2,0.4799722387467777,0.007830743999999999
185.5,25.57,1846.4,0.0005416,3.4993,4.8841,162.45,21.818,34.823,248.38,0.61679,14.465,0.019095,vapor,O2,C7782447,oxygen,154.58,50.43,13.6,0.07352941176470588,1.2,0.5070394606385088,0.007365760000000001
185.5,26.935,1957.5,0.00051086,3.4787,4.8547,161.9,21.879,35.229,247.8,0.61557,14.512,0.019238,vapor,O2,C7782447,oxygen,154.58,50.43,13.6,0.07352941176470588,1.2,0.53410668253024,0.006947696
185.5,28.3,2070.1,0.00048307,3.4578,4.8249,161.38,21.941,35.647,247.22,0.61426,14.561,0.019384,vapor,O2,C7782447,oxygen,154.58,50.43,13.6,0.07352941176470588,1.2,0.561173904421971,0.006569752
185.5,29.665,2184.3,0.00045782,3.4368,4.7949,160.87,22.004,36.079,246.65,0.61287,14.61,0.019534,vapor,O2,C7782447,oxygen,154.58,50.43,13.6,0.07352941176470588,1.2,0.5882411263137022,0.006226352
185.5,31.03,2300.1,0.00043477,3.4155,4.7646,160.38,22.067,36.526,246.08,0.6114,14.661,0.019688,vapor,O2,C7782447,oxygen,154.58,50.43,13.6,0.07352941176470588,1.2,0.6153083482054333,0.005912872
185.5,32.395,2417.5,0.00041365,3.3939,4.7339,159.9,22.132,36.989,245.51,0.60983,14.714,0.019846,vapor,O2,C7782447,oxygen,154.58,50.43,13.6,0.07352941176470588,1.2,0.6423755700971645,0.0056256399999999995
185.5,33.76,2536.6,0.00039422,3.3721,4.703,159.43,22.197,37.467,244.95,0.60817,14.769,0.020008,vapor,O2,C7782447,oxygen,154.58,50.43,13.6,0.07352941176470588,1.2,0.6694427919888954,0.0053613919999999995
185.5,35.125,2657.5,0.00037629,3.35,4.6717,158.98,22.263,37.961,244.4,0.60642,14.825,0.020174,vapor,O2,C7782447,oxygen,154.58,50.43,13.6,0.07352941176470588,1.2,0.6965100138806266,0.005117544
185.5,36.49,2780.2,0.00035969,3.3276,4.6401,158.54,22.33,38.473,243.86,0.60457,14.883,0.020345,vapor,O2,C7782447,oxygen,154.58,50.43,13.6,0.07352941176470588,1.2,0.7235772357723578,0.004891784
185.5,37.855,2904.7,0.00034427,3.305,4.6082,158.11,22.397,39.003,243.32,0.60261,14.944,0.020521,vapor,O2,C7782447,oxygen,154.58,50.43,13.6,0.07352941176470588,1.2,0.7506444576640888,0.004682072
185.5,39.22,3031.2,0.00032991,3.2821,4.576,157.69,22.466,39.552,242.79,0.60054,15.006,0.020702,vapor,O2,C7782447,oxygen,154.58,50.43,13.6,0.07352941176470588,1.2,0.7777116795558199,0.004486776
185.5,40.585,3159.6,0.0003165,3.2589,4.5434,157.28,22.535,40.121,242.27,0.59836,15.071,0.020888,vapor,O2,C7782447,oxygen,154.58,50.43,13.6,0.07352941176470588,1.2,0.804778901447551,0.0043044
185.5,41.95,3290.0,0.00030395,3.2353,4.5104,156.87,22.605,40.71,241.76,0.59607,15.138,0.02108,vapor,O2,C7782447,oxygen,154.58,50.43,13.6,0.07352941176470588,1.2,0.8318461233392822,0.00413372
185.5,43.315,3422.5,0.00029219,3.2115,4.4771,156.47,22.676,41.321,241.25,0.59366,15.208,0.021278,vapor,O2,C7782447,oxygen,154.58,50.43,13.6,0.07352941176470588,1.2,0.8589133452310133,0.003973784
185.5,44.68,3557.1,0.00028113,3.1874,4.4435,156.08,22.748,41.954,240.76,0.59112,15.281,0.021481,vapor,O2,C7782447,oxygen,154.58,50.43,13.6,0.07352941176470588,1.2,0.8859805671227444,0.0038233679999999997
185.5,46.045,3694.0,0.00027071,3.1629,4.4094,155.69,22.82,42.611,240.28,0.58845,15.357,0.021691,vapor,O2,C7782447,oxygen,154.58,50.43,13.6,0.07352941176470588,1.2,0.9130477890144756,0.003681656
185.5,47.41,3833.1,0.00026089,3.1381,4.375,155.31,22.893,43.292,239.82,0.58565,15.436,0.021908,vapor,O2,C7782447,oxygen,154.58,50.43,13.6,0.07352941176470588,1.2,0.9401150109062065,0.003548104
185.5,48.775,3974.5,0.0002516,3.113,4.3402,154.93,22.967,43.998,239.36,0.58272,15.518,0.022131,vapor,O2,C7782447,oxygen,154.58,50.43,13.6,0.07352941176470588,1.2,0.9671822327979377,0.00342176
185.5,50.14,4118.3,0.00024282,3.0875,4.305,154.56,23.042,44.731,238.92,0.57964,15.603,0.022362,vapor,O2,C7782447,oxygen,154.58,50.43,13.6,0.07352941176470588,1.2,0.9942494546896689,0.003302352
185.5,51.505,4264.7,0.00023449,3.0617,4.2694,154.2,23.118,45.492,238.5,0.57642,15.693,0.0226,vapor,O2,C7782447,oxygen,154.58,50.43,13.6,0.07352941176470588,1.2,1.0213166765814,0.003189064
185.5,51.505,4264.7,0.00023449,3.0617,4.2694,154.2,23.118,45.492,238.5,0.57642,15.693,0.0226,supercritical,O2,C7782447,oxygen,154.58,50.43,13.6,0.07352941176470588,1.2,1.0213166765814,0.003189064
185.5,52.87,4413.5,0.00022658,3.0355,4.2334,153.83,23.194,46.281,238.09,0.57304,15.786,0.022846,supercritical,O2,C7782447,oxygen,154.58,50.43,13.6,0.07352941176470588,1.2,1.048383898473131,0.003081488
185.5,54.235,4565.0,0.00021906,3.0089,4.197,153.47,23.271,47.1,237.7,0.56951,15.883,0.0231,supercritical,O2,C7782447,oxygen,154.58,50.43,13.6,0.07352941176470588,1.2,1.0754511203648622,0.002979216
185.5,55.6,4719.2,0.0002119,2.982,4.1602,153.11,23.349,47.95,237.32,0.56582,15.985,0.023362,supercritical,O2,C7782447,oxygen,154.58,50.43,13.6,0.07352941176470588,1.2,1.1025183422565934,0.00288184
185.5,56.965,4876.1,0.00020508,2.9547,4.1229,152.76,23.427,48.832,236.97,0.56196,16.092,0.023634,supercritical,O2,C7782447,oxygen,154.58,50.43,13.6,0.07352941176470588,1.2,1.1295855641483246,0.002789088
185.5,58.33,5035.9,0.00019857,2.927,4.0853,152.41,23.506,49.746,236.64,0.55793,16.203,0.023914,supercritical,O2,C7782447,oxygen,154.58,50.43,13.6,0.07352941176470588,1.2,1.1566527860400555,0.0027005519999999997
185.5,59.695,5198.6,0.00019236,2.8989,4.0472,152.06,23.585,50.695,236.33,0.55373,16.32,0.024204,supercritical,O2,C7782447,oxygen,154.58,50.43,13.6,0.07352941176470588,1.2,1.1837200079317867,0.002616096
185.5,61.06,5364.3,0.00018642,2.8704,4.0086,151.71,23.664,51.678,236.05,0.54934,16.442,0.024504,supercritical,O2,C7782447,oxygen,154.58,50.43,13.6,0.07352941176470588,1.2,1.2107872298235178,0.0025353119999999996
185.5,62.425,5533.0,0.00018073,2.8414,3.9697,151.37,23.744,52.697,235.79,0.54478,16.57,0.024814,supercritical,O2,C7782447,oxygen,154.58,50.43,13.6,0.07352941176470588,1.2,1.2378544517152488,0.0024579280000000003
185.5,63.79,5704.8,0.00017529,2.8121,3.9303,151.02,23.825,53.752,235.56,0.54002,16.704,0.025135,supercritical,O2,C7782447,oxygen,154.58,50.43,13.6,0.07352941176470588,1.2,1.26492167360698,0.0023839440000000003
185.5,65.155,5879.9,0.00017007,2.7823,3.8904,150.68,23.905,54.844,235.36,0.53508,16.844,0.025466,supercritical,O2,C7782447,oxygen,154.58,50.43,13.6,0.07352941176470588,1.2,1.291988895498711,0.002312952
185.5,66.52,6058.2,0.00016506,2.7521,3.8501,150.34,23.985,55.973,235.19,0.52993,16.991,0.025808,supercritical,O2,C7782447,oxygen,154.58,50.43,13.6,0.07352941176470588,1.2,1.319056117390442,0.0022448159999999997
185.5,67.885,6239.9,0.00016026,2.7215,3.8094,150.0,24.066,57.139,235.05,0.5246,17.145,0.026162,supercritical,O2,C7782447,oxygen,154.58,50.43,13.6,0.07352941176470588,1.2,1.3461233392821734,0.0021795359999999997
185.5,69.25,6424.9,0.00015565,2.6905,3.7683,149.66,24.146,58.343,234.96,0.51906,17.306,0.026527,supercritical,O2,C7782447,oxygen,154.58,50.43,13.6,0.07352941176470588,1.2,1.3731905611739044,0.0021168399999999996
185.5,70.615,6613.3,0.00015121,2.659,3.7268,149.33,24.225,59.584,234.9,0.51332,17.476,0.026904,supercritical,O2,C7782447,oxygen,154.58,50.43,13.6,0.07352941176470588,1.2,1.4002577830656355,0.002056456
185.5,71.98,6805.2,0.00014695,2.6271,3.6848,148.99,24.305,60.86,234.88,0.50738,17.653,0.027294,supercritical,O2,C7782447,oxygen,154.58,50.43,13.6,0.07352941176470588,1.2,1.4273250049573667,0.0019985199999999997
185.5,73.345,7000.5,0.00014285,2.5948,3.6425,148.66,24.383,62.171,234.9,0.50123,17.839,0.027695,supercritical,O2,C7782447,oxygen,154.58,50.43,13.6,0.07352941176470588,1.2,1.4543922268490976,0.00194276
185.5,74.71,7199.4,0.0001389,2.562,3.5998,148.32,24.461,63.515,234.98,0.49488,18.033,0.028109,supercritical,O2,C7782447,oxygen,154.58,50.43,13.6,0.07352941176470588,1.2,1.4814594487408288,0.0018890399999999998
185.5,76.075,7401.8,0.0001351,2.5289,3.5567,147.99,24.538,64.89,235.1,0.48833,18.236,0.028535,supercritical,O2,C7782447,oxygen,154.58,50.43,13.6,0.07352941176470588,1.2,1.50852667063256,0.00183736
185.5,77.44,7607.6,0.00013145,2.4953,3.5133,147.66,24.613,66.293,235.27,0.48159,18.449,0.028974,supercritical,O2,C7782447,oxygen,154.58,50.43,13.6,0.07352941176470588,1.2,1.5355938925242911,0.0017877199999999998
185.5,78.805,7816.9,0.00012793,2.4614,3.4695,147.33,24.687,67.72,235.5,0.47464,18.672,0.029425,supercritical,O2,C7782447,oxygen,154.58,50.43,13.6,0.07352941176470588,1.2,1.5626611144160223,0.001739848
185.5,80.17,8029.5,0.00012454,2.4271,3.4255,147.0,24.759,69.167,235.79,0.46752,18.904,0.029888,supercritical,O2,C7782447,oxygen,154.58,50.43,13.6,0.07352941176470588,1.2,1.5897283363077535,0.0016937439999999998
185.5,81.535,8245.5,0.00012128,2.3924,3.3813,146.67,24.83,70.63,236.14,0.4602,19.146,0.030362,supercritical,O2,C7782447,oxygen,154.58,50.43,13.6,0.07352941176470588,1.2,1.6167955581994844,0.001649408
185.5,82.9,8464.7,0.00011814,2.3574,3.3368,146.34,24.898,72.102,236.56,0.45272,19.399,0.030849,supercritical,O2,C7782447,oxygen,154.58,50.43,13.6,0.07352941176470588,1.2,1.6438627800912156,0.001606704
185.5,84.265,8687.0,0.00011511,2.3221,3.2922,146.01,24.964,73.578,237.05,0.44507,19.662,0.031347,supercritical,O2,C7782447,oxygen,154.58,50.43,13.6,0.07352941176470588,1.2,1.6709300019829467,0.001565496
185.5,85.63,8912.2,0.00011221,2.2866,3.2474,145.69,25.027,75.05,237.6,0.43726,19.936,0.031855,supercritical,O2,C7782447,oxygen,154.58,50.43,13.6,0.07352941176470588,1.2,1.6979972238746777,0.001526056
185.5,86.995,9140.1,0.00010941,2.2508,3.2026,145.37,25.087,76.511,238.24,0.42932,20.22,0.032373,supercritical,O2,C7782447,oxygen,154.58,50.43,13.6,0.07352941176470588,1.2,1.725064445766409,0.001487976
185.5,88.36,9370.5,0.00010672,2.2148,3.1578,145.04,25.145,77.953,238.95,0.42124,20.514,0.032901,supercritical,O2,C7782447,oxygen,154.58,50.43,13.6,0.07352941176470588,1.2,1.75213166765814,0.001451392
185.5,89.725,9603.2,0.00010413,2.1786,3.113,144.72,25.199,79.366,239.74,0.41305,20.819,0.033437,supercritical,O2,C7782447,oxygen,154.58,50.43,13.6,0.07352941176470588,1.2,1.779198889549871,0.0014161679999999998
185.5,91.09,9837.9,0.00010165,2.1424,3.0683,144.41,25.249,80.741,240.62,0.40476,21.133,0.033981,supercritical,O2,C7782447,oxygen,154.58,50.43,13.6,0.07352941176470588,1.2,1.8062661114416023,0.00138244
185.5,92.455,10074.0,9.9262e-05,2.106,3.0238,144.09,25.296,82.07,241.58,0.39639,21.458,0.034531,supercritical,O2,C7782447,oxygen,154.58,50.43,13.6,0.07352941176470588,1.2,1.8333333333333333,0.0013499631999999999
185.5,93.82,10312.0,9.6973e-05,2.0697,2.9795,143.78,25.339,83.343,242.63,0.38796,21.792,0.035087,supercritical,O2,C7782447,oxygen,154.58,50.43,13.6,0.07352941176470588,1.2,1.8604005552250644,0.0013188327999999999
185.5,95.185,10551.0,9.4779e-05,2.0334,2.9355,143.48,25.379,84.551,243.77,0.37948,22.135,0.035647,supercritical,O2,C7782447,oxygen,154.58,50.43,13.6,0.07352941176470588,1.2,1.8874677771167956,0.0012889943999999998
185.5,96.55,10790.0,9.2676e-05,1.9971,2.8919,143.17,25.414,85.685,245.01,0.37097,22.486,0.036211,supercritical,O2,C7782447,oxygen,154.58,50.43,13.6,0.07352941176470588,1.2,1.9145349990085265,0.0012603936
185.5,97.915,11030.0,9.0662e-05,1.961,2.8488,142.87,25.446,86.737,246.33,0.36245,22.845,0.036776,supercritical,O2,C7782447,oxygen,154.58,50.43,13.6,0.07352941176470588,1.2,1.941602220900258,0.0012330032
185.5,99.28,11269.0,8.8736e-05,1.9251,2.8061,142.58,25.473,87.7,247.75,0.35394,23.212,0.037342,supercritical,O2,C7782447,oxygen,154.58,50.43,13.6,0.07352941176470588,1.2,1.9686694427919889,0.0012068095999999999
185.5,100.64,11508.0,8.6894e-05,1.8895,2.764,142.28,25.497,88.567,249.26,0.34546,23.585,0.037908,supercritical,O2,C7782447,oxygen,154.58,50.43,13.6,0.07352941176470588,1.2,1.9956375173507832,0.0011817584
185.5,102.01,11746.0,8.5134e-05,1.8542,2.7226,142.0,25.517,89.334,250.87,0.33702,23.963,0.038471,supercritical,O2,C7782447,oxygen,154.58,50.43,13.6,0.07352941176470588,1.2,2.0228038865754514,0.0011578224
185.5,103.38,11983.0,8.3453e-05,1.8192,2.6819,141.72,25.533,89.997,252.56,0.32865,24.346,0.039032,supercritical,O2,C7782447,oxygen,154.58,50.43,13.6,0.07352941176470588,1.2,2.049970255800119,0.0011349608
185.5,104.74,12218.0,8.1849e-05,1.7846,2.6419,141.44,25.546,90.555,254.34,0.32036,24.733,0.039589,supercritical,O2,C7782447,oxygen,154.58,50.43,13.6,0.07352941176470588,1.2,2.0769383303589133,0.0011131463999999999
185.5,106.11,12450.0,8.032e-05,1.7504,2.6027,141.17,25.555,91.005,256.2,0.31217,25.124,0.040141,supercritical,O2,C7782447,oxygen,154.58,50.43,13.6,0.07352941176470588,1.2,2.1041046995835813,0.001092352
185.5,107.47,12680.0,7.8862e-05,1.7168,2.5643,140.9,25.561,91.349,258.15,0.30409,25.517,0.040687,supercritical,O2,C7782447,oxygen,154.58,50.43,13.6,0.07352941176470588,1.2,2.1310727741423756,0.0010725232
185.5,108.83,12908.0,7.7474e-05,1.6837,2.5269,140.64,25.564,91.591,260.18,0.29614,25.911,0.041226,supercritical,O2,C7782447,oxygen,154.58,50.43,13.6,0.07352941176470588,1.2,2.15804084870117,0.0010536464
185.5,110.2,13132.0,7.6151e-05,1.6511,2.4903,140.39,25.564,91.732,262.27,0.28833,26.306,0.041757,supercritical,O2,C7782447,oxygen,154.58,50.43,13.6,0.07352941176470588,1.2,2.185207217925838,0.0010356535999999999
185.5,111.56,13353.0,7.4892e-05,1.6191,2.4547,140.14,25.562,91.778,264.44,0.28066,26.701,0.042281,supercritical,O2,C7782447,oxygen,154.58,50.43,13.6,0.07352941176470588,1.2,2.2121752924846323,0.0010185311999999999
185.5,112.93,13570.0,7.3693e-05,1.5878,2.42,139.9,25.557,91.735,266.67,0.27316,27.095,0.042796,supercritical,O2,C7782447,oxygen,154.58,50.43,13.6,0.07352941176470588,1.2,2.2393416617093003,0.0010022248
185.5,114.3,13783.0,7.2552e-05,1.557,2.3863,139.67,25.55,91.609,268.96,0.26583,27.488,0.043303,supercritical,O2,C7782447,oxygen,154.58,50.43,13.6,0.07352941176470588,1.2,2.266508030933968,0.0009867072000000001
185.5,115.66,13993.0,7.1466e-05,1.5269,2.3535,139.44,25.541,91.408,271.31,0.25868,27.879,0.0438,supercritical,O2,C7782447,oxygen,154.58,50.43,13.6,0.07352941176470588,1.2,2.293476105492762,0.0009719376
185.5,117.03,14198.0,7.0433e-05,1.4975,2.3217,139.21,25.531,91.137,273.7,0.25171,28.268,0.044288,supercritical,O2,C7782447,oxygen,154.58,50.43,13.6,0.07352941176470588,1.2,2.32064247471743,0.0009578887999999999
185.5,118.39,14399.0,6.9449e-05,1.4687,2.2909,138.99,25.519,90.806,276.14,0.24493,28.654,0.044767,supercritical,O2,C7782447,oxygen,154.58,50.43,13.6,0.07352941176470588,1.2,2.3476105492762245,0.0009445064
185.5,119.75,14596.0,6.8512e-05,1.4405,2.261,138.78,25.506,90.421,278.62,0.23833,29.036,0.045237,supercritical,O2,C7782447,oxygen,154.58,50.43,13.6,0.07352941176470588,1.2,2.374578623835019,0.0009317631999999999
185.5,121.12,14789.0,6.7619e-05,1.413,2.232,138.58,25.492,89.989,281.13,0.23193,29.415,0.045697,supercritical,O2,C7782447,oxygen,154.58,50.43,13.6,0.07352941176470588,1.2,2.401744993059687,0.0009196184
185.5,122.48,14977.0,6.6769e-05,1.3862,2.204,138.38,25.477,89.517,283.67,0.22571,29.79,0.046149,supercritical,O2,C7782447,oxygen,154.58,50.43,13.6,0.07352941176470588,1.2,2.428713067618481,0.0009080583999999999
185.5,123.85,15161.0,6.5958e-05,1.36,2.1769,138.18,25.461,89.012,286.24,0.21969,30.161,0.046591,supercritical,O2,C7782447,oxygen,154.58,50.43,13.6,0.07352941176470588,1.2,2.4558794368431487,0.0008970287999999999
185.5,125.22,15341.0,6.5184e-05,1.3344,2.1506,137.99,25.445,88.479,288.83,0.21385,30.528,0.047025,supercritical,O2,C7782447,oxygen,154.58,50.43,13.6,0.07352941176470588,1.2,2.4830458060678167,0.0008865024000000001
185.5,126.58,15517.0,6.4446e-05,1.3094,2.1252,137.81,25.428,87.923,291.44,0.2082,30.89,0.04745,supercritical,O2,C7782447,oxygen,154.58,50.43,13.6,0.07352941176470588,1.2,2.510013880626611,0.0008764656
185.5,127.94,15688.0,6.3741e-05,1.2851,2.1006,137.63,25.41,87.35,294.06,0.20273,31.248,0.047866,supercritical,O2,C7782447,oxygen,154.58,50.43,13.6,0.07352941176470588,1.2,2.5369819551854054,0.0008668775999999999
185.5,129.31,15856.0,6.3067e-05,1.2613,2.0768,137.45,25.393,86.763,296.69,0.19743,31.601,0.048275,supercritical,O2,C7782447,oxygen,154.58,50.43,13.6,0.07352941176470588,1.2,2.5641483244100733,0.0008577111999999999
185.5,130.68,16020.0,6.2423e-05,1.2381,2.0538,137.28,25.375,86.167,299.33,0.19231,31.95,0.048676,supercritical,O2,C7782447,oxygen,154.58,50.43,13.6,0.07352941176470588,1.2,2.5913146936347413,0.0008489527999999999