Temperature (K),Pressure (bar),Density (mol/m3),Volume (m3/mol),Internal Energy (kJ/mol),Enthalpy (kJ/mol),Entropy (J/mol*K),Cv (J/mol*K),Cp (J/mol*K),Sound Spd. (m/s),Joule-Thomson (K/bar),Viscosity (uPa*s),Therm. Cond. (W/m*K),Phase,substance,substance_id,substance_name,Tc,Pc,rhoc,Vmc,Tr,Pr,Vmr
395.43,448.42,16445.0,6.0809e-05,15.547,18.274,66.083,39.687,77.548,523.11,0.0438,63.117,0.081346,supercritical,CO2,C124389,carbon-dioxide,304.18,73.8,10.6,0.09433962264150944,1.3,6.0761517615176155,0.0006445753999999999
395.43,450.88,16485.0,6.0663e-05,15.53,18.266,66.024,39.69,77.446,525.01,0.043058,63.362,0.08158,supercritical,CO2,C124389,carbon-dioxide,304.18,73.8,10.6,0.09433962264150944,1.3,6.109485094850949,0.0006430278
395.43,453.33,16524.0,6.0518e-05,15.514,18.257,65.966,39.692,77.344,526.9,0.042328,63.605,0.081812,supercritical,CO2,C124389,carbon-dioxide,304.18,73.8,10.6,0.09433962264150944,1.3,6.142682926829268,0.0006414907999999999
395.43,455.79,16563.0,6.0375e-05,15.498,18.249,65.908,39.694,77.244,528.79,0.041608,63.848,0.082043,supercritical,CO2,C124389,carbon-dioxide,304.18,73.8,10.6,0.09433962264150944,1.3,6.176016260162602,0.0006399749999999999
395.43,458.25,16602.0,6.0235e-05,15.481,18.242,65.851,39.697,77.145,530.67,0.040899,64.089,0.082273,supercritical,CO2,C124389,carbon-dioxide,304.18,73.8,10.6,0.09433962264150944,1.3,6.2093495934959355,0.0006384909999999999
395.43,460.71,16640.0,6.0096e-05,15.465,18.234,65.794,39.699,77.047,532.54,0.0402,64.33,0.082502,supercritical,CO2,C124389,carbon-dioxide,304.18,73.8,10.6,0.09433962264150944,1.3,6.242682926829268,0.0006370176
395.43,463.17,16678.0,5.9958e-05,15.449,18.226,65.738,39.702,76.949,534.41,0.039512,64.57,0.082731,supercritical,CO2,C124389,carbon-dioxide,304.18,73.8,10.6,0.09433962264150944,1.3,6.276016260162602,0.0006355547999999999
395.43,465.63,16716.0,5.9823e-05,15.433,18.219,65.682,39.704,76.853,536.27,0.038833,64.808,0.082958,supercritical,CO2,C124389,carbon-dioxide,304.18,73.8,10.6,0.09433962264150944,1.3,6.309349593495935,0.0006341238
395.43,468.08,16753.0,5.9689e-05,15.418,18.212,65.626,39.707,76.758,538.12,0.038164,65.046,0.083184,supercritical,CO2,C124389,carbon-dioxide,304.18,73.8,10.6,0.09433962264150944,1.3,6.342547425474255,0.0006327033999999999
395.43,470.54,16791.0,5.9557e-05,15.402,18.205,65.571,39.709,76.663,539.97,0.037505,65.283,0.083409,supercritical,CO2,C124389,carbon-dioxide,304.18,73.8,10.6,0.09433962264150944,1.3,6.375880758807589,0.0006313041999999999
395.43,473.0,16827.0,5.9427e-05,15.387,18.198,65.516,39.712,76.57,541.81,0.036855,65.519,0.083633,supercritical,CO2,C124389,carbon-dioxide,304.18,73.8,10.6,0.09433962264150944,1.3,6.409214092140922,0.0006299261999999999
395.43,475.46,16864.0,5.9298e-05,15.371,18.191,65.462,39.714,76.477,543.64,0.036215,65.754,0.083857,supercritical,CO2,C124389,carbon-dioxide,304.18,73.8,10.6,0.09433962264150944,1.3,6.442547425474254,0.0006285587999999999
395.43,477.92,16900.0,5.9171e-05,15.356,18.184,65.408,39.717,76.386,545.47,0.035583,65.988,0.084079,supercritical,CO2,C124389,carbon-dioxide,304.18,73.8,10.6,0.09433962264150944,1.3,6.475880758807588,0.0006272125999999999
395.43,480.38,16936.0,5.9045e-05,15.341,18.177,65.355,39.72,76.295,547.29,0.03496,66.222,0.084301,supercritical,CO2,C124389,carbon-dioxide,304.18,73.8,10.6,0.09433962264150944,1.3,6.509214092140922,0.0006258769999999999
395.43,482.83,16972.0,5.8921e-05,15.326,18.171,65.302,39.722,76.206,549.1,0.034346,66.454,0.084521,supercritical,CO2,C124389,carbon-dioxide,304.18,73.8,10.6,0.09433962264150944,1.3,6.542411924119241,0.0006245625999999999
395.43,485.29,17007.0,5.8799e-05,15.311,18.164,65.249,39.725,76.117,550.91,0.033741,66.686,0.084741,supercritical,CO2,C124389,carbon-dioxide,304.18,73.8,10.6,0.09433962264150944,1.3,6.575745257452575,0.0006232693999999999
395.43,487.75,17042.0,5.8677e-05,15.296,18.158,65.197,39.728,76.029,552.71,0.033144,66.917,0.08496,supercritical,CO2,C124389,carbon-dioxide,304.18,73.8,10.6,0.09433962264150944,1.3,6.609078590785908,0.0006219762
395.43,490.21,17077.0,5.8558e-05,15.282,18.152,65.145,39.731,75.942,554.51,0.032555,67.147,0.085178,supercritical,CO2,C124389,carbon-dioxide,304.18,73.8,10.6,0.09433962264150944,1.3,6.642411924119241,0.0006207147999999999
395.43,492.67,17112.0,5.8439e-05,15.267,18.146,65.093,39.733,75.856,556.3,0.031974,67.376,0.085395,supercritical,CO2,C124389,carbon-dioxide,304.18,73.8,10.6,0.09433962264150944,1.3,6.675745257452575,0.0006194534
395.43,495.13,17146.0,5.8322e-05,15.252,18.14,65.042,39.736,75.771,558.08,0.031401,67.604,0.085611,supercritical,CO2,C124389,carbon-dioxide,304.18,73.8,10.6,0.09433962264150944,1.3,6.709078590785908,0.0006182132
395.43,497.58,17180.0,5.8206e-05,15.238,18.134,64.991,39.739,75.687,559.85,0.030835,67.831,0.085827,supercritical,CO2,C124389,carbon-dioxide,304.18,73.8,10.6,0.09433962264150944,1.3,6.742276422764228,0.0006169836
395.43,500.04,17214.0,5.8092e-05,15.224,18.129,64.94,39.742,75.604,561.62,0.030278,68.058,0.086041,supercritical,CO2,C124389,carbon-dioxide,304.18,73.8,10.6,0.09433962264150944,1.3,6.775609756097562,0.0006157751999999999
395.43,502.5,17248.0,5.7979e-05,15.21,18.123,64.89,39.745,75.521,563.39,0.029728,68.284,0.086255,supercritical,CO2,C124389,carbon-dioxide,304.18,73.8,10.6,0.09433962264150944,1.3,6.808943089430895,0.0006145774
395.43,504.96,17281.0,5.7867e-05,15.196,18.118,64.84,39.748,75.44,565.15,0.029185,68.509,0.086468,supercritical,CO2,C124389,carbon-dioxide,304.18,73.8,10.6,0.09433962264150944,1.3,6.842276422764227,0.0006133902
395.43,507.42,17314.0,5.7757e-05,15.182,18.112,64.791,39.751,75.359,566.9,0.028649,68.733,0.08668,supercritical,CO2,C124389,carbon-dioxide,304.18,73.8,10.6,0.09433962264150944,1.3,6.875609756097561,0.0006122242
395.43,509.88,17347.0,5.7647e-05,15.168,18.107,64.742,39.754,75.279,568.64,0.028121,68.957,0.086891,supercritical,CO2,C124389,carbon-dioxide,304.18,73.8,10.6,0.09433962264150944,1.3,6.9089430894308945,0.0006110581999999999
395.43,512.33,17379.0,5.7539e-05,15.154,18.102,64.693,39.757,75.2,570.38,0.027599,69.18,0.087102,supercritical,CO2,C124389,carbon-dioxide,304.18,73.8,10.6,0.09433962264150944,1.3,6.942140921409215,0.0006099133999999999
395.43,514.79,17412.0,5.7432e-05,15.14,18.097,64.644,39.76,75.121,572.12,0.027084,69.402,0.087312,supercritical,CO2,C124389,carbon-dioxide,304.18,73.8,10.6,0.09433962264150944,1.3,6.975474254742547,0.0006087792
395.43,517.25,17444.0,5.7327e-05,15.127,18.092,64.596,39.763,75.044,573.84,0.026576,69.623,0.087521,supercritical,CO2,C124389,carbon-dioxide,304.18,73.8,10.6,0.09433962264150944,1.3,7.008807588075881,0.0006076661999999999
395.43,519.71,17476.0,5.7222e-05,15.113,18.087,64.548,39.766,74.967,575.56,0.026074,69.844,0.087729,supercritical,CO2,C124389,carbon-dioxide,304.18,73.8,10.6,0.09433962264150944,1.3,7.0421409214092145,0.0006065532
395.43,522.17,17507.0,5.7118e-05,15.1,18.082,64.501,39.769,74.891,577.28,0.025579,70.063,0.087937,supercritical,CO2,C124389,carbon-dioxide,304.18,73.8,10.6,0.09433962264150944,1.3,7.075474254742547,0.0006054508
395.43,524.63,17539.0,5.7016e-05,15.086,18.078,64.454,39.773,74.816,578.99,0.02509,70.282,0.088144,supercritical,CO2,C124389,carbon-dioxide,304.18,73.8,10.6,0.09433962264150944,1.3,7.108807588075881,0.0006043695999999999
395.43,527.08,17570.0,5.6915e-05,15.073,18.073,64.407,39.776,74.742,580.69,0.024608,70.501,0.08835,supercritical,CO2,C124389,carbon-dioxide,304.18,73.8,10.6,0.09433962264150944,1.3,7.142005420054201,0.000603299
395.43,529.54,17601.0,5.6814e-05,15.06,18.069,64.36,39.779,74.668,582.39,0.024132,70.719,0.088555,supercritical,CO2,C124389,carbon-dioxide,304.18,73.8,10.6,0.09433962264150944,1.3,7.175338753387534,0.0006022283999999999
395.43,532.0,17632.0,5.6715e-05,15.047,18.064,64.314,39.782,74.595,584.08,0.023661,70.936,0.08876,supercritical,CO2,C124389,carbon-dioxide,304.18,73.8,10.6,0.09433962264150944,1.3,7.208672086720868,0.000601179
395.43,534.46,17663.0,5.6617e-05,15.034,18.06,64.267,39.785,74.523,585.77,0.023197,71.152,0.088964,supercritical,CO2,C124389,carbon-dioxide,304.18,73.8,10.6,0.09433962264150944,1.3,7.242005420054201,0.0006001401999999999
395.43,536.92,17693.0,5.652e-05,15.021,18.056,64.222,39.789,74.452,587.45,0.022738,71.368,0.089167,supercritical,CO2,C124389,carbon-dioxide,304.18,73.8,10.6,0.09433962264150944,1.3,7.275338753387533,0.000599112
395.43,539.38,17723.0,5.6423e-05,15.008,18.052,64.176,39.792,74.381,589.12,0.022285,71.583,0.08937,supercritical,CO2,C124389,carbon-dioxide,304.18,73.8,10.6,0.09433962264150944,1.3,7.308672086720867,0.0005980838
395.43,541.83,17753.0,5.6328e-05,14.995,18.048,64.131,39.795,74.311,590.79,0.021838,71.797,0.089572,supercritical,CO2,C124389,carbon-dioxide,304.18,73.8,10.6,0.09433962264150944,1.3,7.341869918699188,0.0005970767999999999
395.43,544.29,17783.0,5.6234e-05,14.983,18.044,64.086,39.799,74.242,592.45,0.021396,72.011,0.089773,supercritical,CO2,C124389,carbon-dioxide,304.18,73.8,10.6,0.09433962264150944,1.3,7.37520325203252,0.0005960803999999999
395.43,546.75,17813.0,5.614e-05,14.97,18.04,64.041,39.802,74.173,594.11,0.020959,72.224,0.089973,supercritical,CO2,C124389,carbon-dioxide,304.18,73.8,10.6,0.09433962264150944,1.3,7.408536585365854,0.000595084
395.43,549.21,17842.0,5.6048e-05,14.958,18.036,63.997,39.805,74.105,595.76,0.020528,72.436,0.090173,supercritical,CO2,C124389,carbon-dioxide,304.18,73.8,10.6,0.09433962264150944,1.3,7.4418699186991875,0.0005941088
395.43,551.67,17871.0,5.5956e-05,14.945,18.032,63.953,39.809,74.038,597.41,0.020102,72.648,0.090373,supercritical,CO2,C124389,carbon-dioxide,304.18,73.8,10.6,0.09433962264150944,1.3,7.47520325203252,0.0005931335999999999
395.43,554.13,17900.0,5.5866e-05,14.933,18.029,63.909,39.812,73.972,599.05,0.019682,72.859,0.090571,supercritical,CO2,C124389,carbon-dioxide,304.18,73.8,10.6,0.09433962264150944,1.3,7.508536585365854,0.0005921796
395.43,556.58,17929.0,5.5776e-05,14.921,18.025,63.865,39.816,73.906,600.69,0.019266,73.07,0.090769,supercritical,CO2,C124389,carbon-dioxide,304.18,73.8,10.6,0.09433962264150944,1.3,7.541734417344174,0.0005912256
395.43,559.04,17958.0,5.5687e-05,14.908,18.022,63.822,39.819,73.841,602.32,0.018855,73.28,0.090967,supercritical,CO2,C124389,carbon-dioxide,304.18,73.8,10.6,0.09433962264150944,1.3,7.575067750677507,0.0005902821999999999
395.43,561.5,17986.0,5.5599e-05,14.896,18.018,63.778,39.823,73.776,603.94,0.018449,73.489,0.091163,supercritical,CO2,C124389,carbon-dioxide,304.18,73.8,10.6,0.09433962264150944,1.3,7.608401084010841,0.0005893494
395.43,563.96,18014.0,5.5511e-05,14.884,18.015,63.736,39.826,73.712,605.56,0.018048,73.697,0.09136,supercritical,CO2,C124389,carbon-dioxide,304.18,73.8,10.6,0.09433962264150944,1.3,7.641734417344174,0.0005884165999999999
395.43,566.42,18042.0,5.5425e-05,14.872,18.012,63.693,39.83,73.649,607.17,0.017652,73.906,0.091555,supercritical,CO2,C124389,carbon-dioxide,304.18,73.8,10.6,0.09433962264150944,1.3,7.675067750677506,0.000587505
395.43,568.88,18070.0,5.5339e-05,14.86,18.009,63.651,39.833,73.586,608.78,0.01726,74.113,0.09175,supercritical,CO2,C124389,carbon-dioxide,304.18,73.8,10.6,0.09433962264150944,1.3,7.70840108401084,0.0005865934
395.43,571.33,18098.0,5.5254e-05,14.849,18.005,63.608,39.837,73.524,610.38,0.016873,74.32,0.091944,supercritical,CO2,C124389,carbon-dioxide,304.18,73.8,10.6,0.09433962264150944,1.3,7.741598915989161,0.0005856924
395.43,573.79,18126.0,5.517e-05,14.837,18.002,63.566,39.84,73.463,611.98,0.016491,74.526,0.092138,supercritical,CO2,C124389,carbon-dioxide,304.18,73.8,10.6,0.09433962264150944,1.3,7.774932249322493,0.0005848019999999999
395.43,576.25,18153.0,5.5087e-05,14.825,17.999,63.525,39.844,73.402,613.57,0.016113,74.732,0.092331,supercritical,CO2,C124389,carbon-dioxide,304.18,73.8,10.6,0.09433962264150944,1.3,7.808265582655827,0.0005839222
395.43,578.71,18180.0,5.5004e-05,14.813,17.997,63.483,39.848,73.342,615.16,0.015739,74.937,0.092524,supercritical,CO2,C124389,carbon-dioxide,304.18,73.8,10.6,0.09433962264150944,1.3,7.84159891598916,0.0005830423999999999
395.43,581.17,18207.0,5.4922e-05,14.802,17.994,63.442,39.851,73.282,616.74,0.015369,75.142,0.092716,supercritical,CO2,C124389,carbon-dioxide,304.18,73.8,10.6,0.09433962264150944,1.3,7.874932249322493,0.0005821731999999999
395.43,583.63,18234.0,5.4841e-05,14.79,17.991,63.401,39.855,73.223,618.32,0.015004,75.346,0.092907,supercritical,CO2,C124389,carbon-dioxide,304.18,73.8,10.6,0.09433962264150944,1.3,7.908265582655827,0.0005813146
395.43,586.08,18261.0,5.4761e-05,14.779,17.988,63.36,39.859,73.165,619.89,0.014643,75.55,0.093098,supercritical,CO2,C124389,carbon-dioxide,304.18,73.8,10.6,0.09433962264150944,1.3,7.941463414634147,0.0005804666
395.43,588.54,18288.0,5.4681e-05,14.768,17.986,63.319,39.862,73.107,621.46,0.014286,75.753,0.093289,supercritical,CO2,C124389,carbon-dioxide,304.18,73.8,10.6,0.09433962264150944,1.3,7.9747967479674795,0.0005796185999999999
395.43,591.0,18314.0,5.4602e-05,14.756,17.983,63.279,39.866,73.05,623.02,0.013933,75.955,0.093479,supercritical,CO2,C124389,carbon-dioxide,304.18,73.8,10.6,0.09433962264150944,1.3,8.008130081300813,0.0005787812
395.43,593.46,18341.0,5.4524e-05,14.745,17.981,63.239,39.87,72.993,624.58,0.013584,76.157,0.093668,supercritical,CO2,C124389,carbon-dioxide,304.18,73.8,10.6,0.09433962264150944,1.3,8.041463414634148,0.0005779544
395.43,595.92,18367.0,5.4446e-05,14.734,17.978,63.199,39.873,72.937,626.13,0.013239,76.359,0.093857,supercritical,CO2,C124389,carbon-dioxide,304.18,73.8,10.6,0.09433962264150944,1.3,8.07479674796748,0.0005771276
395.43,598.38,18393.0,5.437e-05,14.723,17.976,63.159,39.877,72.881,627.67,0.012897,76.56,0.094045,supercritical,CO2,C124389,carbon-dioxide,304.18,73.8,10.6,0.09433962264150944,1.3,8.108130081300814,0.000576322
395.43,600.83,18418.0,5.4293e-05,14.712,17.974,63.12,39.881,72.826,629.22,0.01256,76.76,0.094233,supercritical,CO2,C124389,carbon-dioxide,304.18,73.8,10.6,0.09433962264150944,1.3,8.141327913279135,0.0005755058
395.43,603.29,18444.0,5.4218e-05,14.701,17.972,63.08,39.885,72.771,630.75,0.012226,76.96,0.09442,supercritical,CO2,C124389,carbon-dioxide,304.18,73.8,10.6,0.09433962264150944,1.3,8.174661246612466,0.0005747107999999999
395.43,605.75,18470.0,5.4143e-05,14.69,17.969,63.041,39.888,72.717,632.28,0.011896,77.159,0.094606,supercritical,CO2,C124389,carbon-dioxide,304.18,73.8,10.6,0.09433962264150944,1.3,8.2079945799458,0.0005739158
395.43,608.21,18495.0,5.4068e-05,14.679,17.967,63.002,39.892,72.663,633.81,0.011569,77.358,0.094793,supercritical,CO2,C124389,carbon-dioxide,304.18,73.8,10.6,0.09433962264150944,1.3,8.241327913279134,0.0005731207999999999
395.43,610.67,18520.0,5.3995e-05,14.668,17.965,62.964,39.896,72.61,635.33,0.011246,77.557,0.094978,supercritical,CO2,C124389,carbon-dioxide,304.18,73.8,10.6,0.09433962264150944,1.3,8.274661246612466,0.000572347
395.43,613.13,18545.0,5.3921e-05,14.657,17.963,62.925,39.9,72.558,636.85,0.010926,77.755,0.095163,supercritical,CO2,C124389,carbon-dioxide,304.18,73.8,10.6,0.09433962264150944,1.3,8.3079945799458,0.0005715626
395.43,615.58,18570.0,5.3849e-05,14.647,17.961,62.887,39.904,72.505,638.37,0.01061,77.952,0.095348,supercritical,CO2,C124389,carbon-dioxide,304.18,73.8,10.6,0.09433962264150944,1.3,8.341192411924121,0.0005707993999999999
395.43,618.04,18595.0,5.3777e-05,14.636,17.959,62.848,39.908,72.454,639.87,0.010297,78.149,0.095532,supercritical,CO2,C124389,carbon-dioxide,304.18,73.8,10.6,0.09433962264150944,1.3,8.374525745257452,0.0005700362
395.43,620.5,18620.0,5.3706e-05,14.625,17.958,62.81,39.912,72.403,641.38,0.0099875,78.346,0.095716,supercritical,CO2,C124389,carbon-dioxide,304.18,73.8,10.6,0.09433962264150944,1.3,8.407859078590786,0.0005692836
395.43,622.96,18645.0,5.3635e-05,14.615,17.956,62.773,39.915,72.352,642.88,0.0096812,78.542,0.095899,supercritical,CO2,C124389,carbon-dioxide,304.18,73.8,10.6,0.09433962264150944,1.3,8.44119241192412,0.0005685309999999999
395.43,625.42,18669.0,5.3565e-05,14.604,17.954,62.735,39.919,72.302,644.37,0.0093782,78.737,0.096082,supercritical,CO2,C124389,carbon-dioxide,304.18,73.8,10.6,0.09433962264150944,1.3,8.474525745257452,0.000567789
395.43,627.88,18693.0,5.3495e-05,14.594,17.953,62.698,39.923,72.252,645.86,0.0090783,78.932,0.096264,supercritical,CO2,C124389,carbon-dioxide,304.18,73.8,10.6,0.09433962264150944,1.3,8.507859078590787,0.000567047
395.43,630.33,18717.0,5.3426e-05,14.583,17.951,62.66,39.927,72.203,647.35,0.0087816,79.127,0.096446,supercritical,CO2,C124389,carbon-dioxide,304.18,73.8,10.6,0.09433962264150944,1.3,8.541056910569107,0.0005663156
395.43,632.79,18742.0,5.3357e-05,14.573,17.949,62.623,39.931,72.154,648.83,0.0084879,79.321,0.096627,supercritical,CO2,C124389,carbon-dioxide,304.18,73.8,10.6,0.09433962264150944,1.3,8.574390243902439,0.0005655841999999999
395.43,635.25,18765.0,5.3289e-05,14.563,17.948,62.586,39.935,72.105,650.3,0.0081973,79.515,0.096808,supercritical,CO2,C124389,carbon-dioxide,304.18,73.8,10.6,0.09433962264150944,1.3,8.607723577235772,0.0005648633999999999
395.43,637.71,18789.0,5.3222e-05,14.553,17.947,62.55,39.939,72.058,651.77,0.0079097,79.708,0.096989,supercritical,CO2,C124389,carbon-dioxide,304.18,73.8,10.6,0.09433962264150944,1.3,8.641056910569107,0.0005641531999999999
395.43,640.17,18813.0,5.3155e-05,14.542,17.945,62.513,39.943,72.01,653.24,0.007625,79.901,0.097169,supercritical,CO2,C124389,carbon-dioxide,304.18,73.8,10.6,0.09433962264150944,1.3,8.674390243902439,0.000563443
395.43,642.63,18836.0,5.3089e-05,14.532,17.944,62.477,39.947,71.963,654.7,0.0073432,80.093,0.097348,supercritical,CO2,C124389,carbon-dioxide,304.18,73.8,10.6,0.09433962264150944,1.3,8.707723577235774,0.0005627433999999999
395.43,645.08,18860.0,5.3023e-05,14.522,17.943,62.441,39.951,71.916,656.16,0.0070643,80.285,0.097527,supercritical,CO2,C124389,carbon-dioxide,304.18,73.8,10.6,0.09433962264150944,1.3,8.740921409214094,0.0005620438
395.43,647.54,18883.0,5.2957e-05,14.512,17.941,62.405,39.955,71.87,657.62,0.0067882,80.477,0.097706,supercritical,CO2,C124389,carbon-dioxide,304.18,73.8,10.6,0.09433962264150944,1.3,8.774254742547425,0.0005613441999999999
395.43,650.0,18906.0,5.2892e-05,14.502,17.94,62.369,39.959,71.824,659.07,0.0065149,80.668,0.097884,supercritical,CO2,C124389,carbon-dioxide,304.18,73.8,10.6,0.09433962264150944,1.3,8.807588075880759,0.0005606551999999999
395.43,652.46,18929.0,5.2828e-05,14.492,17.939,62.333,39.963,71.779,660.51,0.0062443,80.859,0.098062,supercritical,CO2,C124389,carbon-dioxide,304.18,73.8,10.6,0.09433962264150944,1.3,8.840921409214094,0.0005599768
395.43,654.92,18952.0,5.2764e-05,14.482,17.938,62.297,39.967,71.734,661.95,0.0059764,81.049,0.09824,supercritical,CO2,C124389,carbon-dioxide,304.18,73.8,10.6,0.09433962264150944,1.3,8.874254742547425,0.0005592984
395.43,657.38,18975.0,5.2701e-05,14.473,17.937,62.262,39.971,71.689,663.39,0.0057111,81.239,0.098417,supercritical,CO2,C124389,carbon-dioxide,304.18,73.8,10.6,0.09433962264150944,1.3,8.90758807588076,0.0005586305999999999
395.43,659.83,18998.0,5.2638e-05,14.463,17.936,62.227,39.976,71.645,664.82,0.0054485,81.429,0.098593,supercritical,CO2,C124389,carbon-dioxide,304.18,73.8,10.6,0.09433962264150944,1.3,8.94078590785908,0.0005579628
395.43,662.29,19020.0,5.2575e-05,14.453,17.935,62.192,39.98,71.601,666.25,0.0051885,81.618,0.098769,supercritical,CO2,C124389,carbon-dioxide,304.18,73.8,10.6,0.09433962264150944,1.3,8.974119241192412,0.000557295
395.43,664.75,19043.0,5.2513e-05,14.443,17.934,62.157,39.984,71.557,667.68,0.004931,81.807,0.098945,supercritical,CO2,C124389,carbon-dioxide,304.18,73.8,10.6,0.09433962264150944,1.3,9.007452574525745,0.0005566378
395.43,667.21,19065.0,5.2451e-05,14.434,17.933,62.122,39.988,71.514,669.1,0.004676,81.995,0.09912,supercritical,CO2,C124389,carbon-dioxide,304.18,73.8,10.6,0.09433962264150944,1.3,9.04078590785908,0.0005559806
395.43,669.67,19088.0,5.239e-05,14.424,17.933,62.087,39.992,71.471,670.51,0.0044235,82.183,0.099295,supercritical,CO2,C124389,carbon-dioxide,304.18,73.8,10.6,0.09433962264150944,1.3,9.074119241192411,0.000555334