Temperature (K),Pressure (bar),Density (mol/m3),Volume (m3/mol),Internal Energy (kJ/mol),Enthalpy (kJ/mol),Entropy (J/mol*K),Cv (J/mol*K),Cp (J/mol*K),Sound Spd. (m/s),Joule-Thomson (K/bar),Viscosity (uPa*s),Therm. Cond. (W/m*K),Phase,substance,substance_id,substance_name,Tc,Pc,rhoc,Vmc,Tr,Pr,Vmr
1294.0,2104.6,18756.0,5.3316e-05,65.618,76.84,111.31,42.257,61.618,1063.8,0.029297,62.834,0.37072,supercritical,H2O,C7732185,water,647.0,220.64,17.9,0.0558659217877095,2.0,9.538614938361132,0.0009543564
1294.0,2112.0,18808.0,5.3168e-05,65.597,76.826,111.27,42.269,61.638,1065.1,0.029098,62.886,0.37142,supercritical,H2O,C7732185,water,647.0,220.64,17.9,0.0558659217877095,2.0,9.572153734590284,0.0009517072
1294.0,2119.3,18861.0,5.302e-05,65.577,76.813,111.22,42.28,61.657,1066.3,0.028901,62.939,0.37212,supercritical,H2O,C7732185,water,647.0,220.64,17.9,0.0558659217877095,2.0,9.605239303843366,0.0009490579999999999
1294.0,2126.7,18913.0,5.2873e-05,65.556,76.8,111.18,42.291,61.677,1067.6,0.028704,62.991,0.37282,supercritical,H2O,C7732185,water,647.0,220.64,17.9,0.0558659217877095,2.0,9.638778100072516,0.0009464266999999999
1294.0,2134.0,18965.0,5.2728e-05,65.535,76.787,111.14,42.303,61.696,1068.8,0.028508,63.043,0.37352,supercritical,H2O,C7732185,water,647.0,220.64,17.9,0.0558659217877095,2.0,9.6718636693256,0.0009438312
1294.0,2141.4,19017.0,5.2584e-05,65.514,76.774,111.1,42.314,61.715,1070.1,0.028314,63.095,0.37421,supercritical,H2O,C7732185,water,647.0,220.64,17.9,0.0558659217877095,2.0,9.705402465554752,0.0009412535999999998
1294.0,2148.7,19069.0,5.2441e-05,65.493,76.762,111.07,42.325,61.733,1071.3,0.02812,63.147,0.37491,supercritical,H2O,C7732185,water,647.0,220.64,17.9,0.0558659217877095,2.0,9.738488034807832,0.0009386939
1294.0,2156.1,19121.0,5.2299e-05,65.473,76.749,111.03,42.336,61.752,1072.6,0.027927,63.199,0.3756,supercritical,H2O,C7732185,water,647.0,220.64,17.9,0.0558659217877095,2.0,9.772026831036984,0.0009361521
1294.0,2163.4,19173.0,5.2158e-05,65.452,76.736,110.99,42.347,61.77,1073.8,0.027735,63.251,0.3763,supercritical,H2O,C7732185,water,647.0,220.64,17.9,0.0558659217877095,2.0,9.805112400290067,0.0009336281999999999
1294.0,2170.8,19224.0,5.2018e-05,65.432,76.724,110.95,42.358,61.789,1075.1,0.027544,63.303,0.37699,supercritical,H2O,C7732185,water,647.0,220.64,17.9,0.0558659217877095,2.0,9.838651196519217,0.0009311222
1294.0,2178.1,19276.0,5.1879e-05,65.411,76.711,110.91,42.369,61.807,1076.3,0.027354,63.355,0.37768,supercritical,H2O,C7732185,water,647.0,220.64,17.9,0.0558659217877095,2.0,9.8717367657723,0.0009286340999999999
1294.0,2185.5,19327.0,5.1742e-05,65.391,76.699,110.87,42.38,61.824,1077.6,0.027165,63.407,0.37837,supercritical,H2O,C7732185,water,647.0,220.64,17.9,0.0558659217877095,2.0,9.905275562001451,0.0009261817999999999
1294.0,2192.8,19378.0,5.1605e-05,65.371,76.686,110.83,42.391,61.842,1078.9,0.026976,63.459,0.37905,supercritical,H2O,C7732185,water,647.0,220.64,17.9,0.0558659217877095,2.0,9.938361131254533,0.0009237294999999999
1294.0,2200.2,19429.0,5.1469e-05,65.35,76.674,110.79,42.402,61.859,1080.1,0.026789,63.511,0.37974,supercritical,H2O,C7732185,water,647.0,220.64,17.9,0.0558659217877095,2.0,9.971899927483683,0.0009212950999999999
1294.0,2207.5,19480.0,5.1335e-05,65.33,76.662,110.75,42.413,61.877,1081.4,0.026602,63.563,0.38042,supercritical,H2O,C7732185,water,647.0,220.64,17.9,0.0558659217877095,2.0,10.004985496736767,0.0009188965
1294.0,2214.8,19531.0,5.1201e-05,65.31,76.65,110.71,42.424,61.894,1082.7,0.026417,63.615,0.38111,supercritical,H2O,C7732185,water,647.0,220.64,17.9,0.0558659217877095,2.0,10.038071065989849,0.0009164978999999999
1294.0,2222.2,19582.0,5.1068e-05,65.29,76.638,110.68,42.434,61.911,1083.9,0.026232,63.667,0.38179,supercritical,H2O,C7732185,water,647.0,220.64,17.9,0.0558659217877095,2.0,10.071609862218999,0.0009141172
1294.0,2229.5,19632.0,5.0937e-05,65.27,76.626,110.64,42.445,61.927,1085.2,0.026048,63.719,0.38247,supercritical,H2O,C7732185,water,647.0,220.64,17.9,0.0558659217877095,2.0,10.104695431472082,0.0009117722999999999
1294.0,2236.9,19683.0,5.0806e-05,65.25,76.614,110.6,42.456,61.944,1086.5,0.025865,63.771,0.38315,supercritical,H2O,C7732185,water,647.0,220.64,17.9,0.0558659217877095,2.0,10.138234227701235,0.0009094274
1294.0,2244.2,19733.0,5.0677e-05,65.23,76.603,110.56,42.467,61.96,1087.7,0.025683,63.823,0.38383,supercritical,H2O,C7732185,water,647.0,220.64,17.9,0.0558659217877095,2.0,10.171319796954315,0.0009071183
1294.0,2251.6,19783.0,5.0548e-05,65.21,76.591,110.52,42.477,61.976,1089.0,0.025502,63.875,0.38451,supercritical,H2O,C7732185,water,647.0,220.64,17.9,0.0558659217877095,2.0,10.204858593183467,0.0009048091999999999
1294.0,2258.9,19833.0,5.042e-05,65.19,76.579,110.49,42.488,61.992,1090.3,0.025322,63.927,0.38518,supercritical,H2O,C7732185,water,647.0,220.64,17.9,0.0558659217877095,2.0,10.23794416243655,0.0009025179999999999
1294.0,2266.3,19883.0,5.0293e-05,65.17,76.568,110.45,42.498,62.008,1091.5,0.025143,63.979,0.38586,supercritical,H2O,C7732185,water,647.0,220.64,17.9,0.0558659217877095,2.0,10.2714829586657,0.0009002446999999999
1294.0,2273.6,19933.0,5.0167e-05,65.15,76.557,110.41,42.509,62.024,1092.8,0.024964,64.031,0.38653,supercritical,H2O,C7732185,water,647.0,220.64,17.9,0.0558659217877095,2.0,10.304568527918782,0.0008979893
1294.0,2281.0,19983.0,5.0042e-05,65.131,76.545,110.37,42.519,62.039,1094.1,0.024787,64.083,0.3872,supercritical,H2O,C7732185,water,647.0,220.64,17.9,0.0558659217877095,2.0,10.338107324147934,0.0008957517999999999
1294.0,2288.3,20033.0,4.9918e-05,65.111,76.534,110.34,42.53,62.055,1095.4,0.02461,64.135,0.38787,supercritical,H2O,C7732185,water,647.0,220.64,17.9,0.0558659217877095,2.0,10.371192893401016,0.0008935321999999999
1294.0,2295.7,20082.0,4.9795e-05,65.091,76.523,110.3,42.54,62.07,1096.6,0.024434,64.187,0.38854,supercritical,H2O,C7732185,water,647.0,220.64,17.9,0.0558659217877095,2.0,10.404731689630166,0.0008913304999999999
1294.0,2303.0,20132.0,4.9673e-05,65.072,76.512,110.26,42.551,62.085,1097.9,0.024259,64.239,0.38921,supercritical,H2O,C7732185,water,647.0,220.64,17.9,0.0558659217877095,2.0,10.43781725888325,0.0008891466999999999
1294.0,2310.4,20181.0,4.9552e-05,65.052,76.501,110.23,42.561,62.1,1099.2,0.024085,64.291,0.38988,supercritical,H2O,C7732185,water,647.0,220.64,17.9,0.0558659217877095,2.0,10.471356055112402,0.0008869807999999999
1294.0,2317.7,20230.0,4.9431e-05,65.033,76.49,110.19,42.571,62.114,1100.5,0.023912,64.343,0.39054,supercritical,H2O,C7732185,water,647.0,220.64,17.9,0.0558659217877095,2.0,10.504441624365482,0.0008848149
1294.0,2325.1,20279.0,4.9311e-05,65.013,76.479,110.15,42.582,62.129,1101.7,0.02374,64.395,0.39121,supercritical,H2O,C7732185,water,647.0,220.64,17.9,0.0558659217877095,2.0,10.537980420594634,0.0008826669
1294.0,2332.4,20328.0,4.9193e-05,64.994,76.468,110.12,42.592,62.143,1103.0,0.023568,64.447,0.39187,supercritical,H2O,C7732185,water,647.0,220.64,17.9,0.0558659217877095,2.0,10.571065989847718,0.0008805547
1294.0,2339.8,20377.0,4.9075e-05,64.975,76.457,110.08,42.602,62.158,1104.3,0.023398,64.499,0.39254,supercritical,H2O,C7732185,water,647.0,220.64,17.9,0.0558659217877095,2.0,10.60460478607687,0.0008784425
1294.0,2347.1,20426.0,4.8958e-05,64.956,76.447,110.05,42.612,62.172,1105.6,0.023228,64.551,0.3932,supercritical,H2O,C7732185,water,647.0,220.64,17.9,0.0558659217877095,2.0,10.63769035532995,0.0008763482
1294.0,2354.5,20474.0,4.8841e-05,64.936,76.436,110.01,42.623,62.186,1106.9,0.023059,64.602,0.39386,supercritical,H2O,C7732185,water,647.0,220.64,17.9,0.0558659217877095,2.0,10.671229151559102,0.0008742539
1294.0,2361.8,20523.0,4.8726e-05,64.917,76.426,109.97,42.633,62.2,1108.1,0.022891,64.654,0.39452,supercritical,H2O,C7732185,water,647.0,220.64,17.9,0.0558659217877095,2.0,10.704314720812183,0.0008721954
1294.0,2369.2,20571.0,4.8611e-05,64.898,76.415,109.94,42.643,62.213,1109.4,0.022724,64.706,0.39518,supercritical,H2O,C7732185,water,647.0,220.64,17.9,0.0558659217877095,2.0,10.737853517041334,0.0008701369
1294.0,2376.5,20620.0,4.8497e-05,64.879,76.405,109.9,42.653,62.227,1110.7,0.022558,64.758,0.39583,supercritical,H2O,C7732185,water,647.0,220.64,17.9,0.0558659217877095,2.0,10.770939086294417,0.0008680962999999999
1294.0,2383.9,20668.0,4.8384e-05,64.86,76.394,109.87,42.663,62.24,1112.0,0.022392,64.81,0.39649,supercritical,H2O,C7732185,water,647.0,220.64,17.9,0.0558659217877095,2.0,10.80447788252357,0.0008660736
1294.0,2391.2,20716.0,4.8272e-05,64.841,76.384,109.83,42.673,62.253,1113.3,0.022228,64.862,0.39714,supercritical,H2O,C7732185,water,647.0,220.64,17.9,0.0558659217877095,2.0,10.83756345177665,0.0008640688
1294.0,2398.6,20764.0,4.8161e-05,64.823,76.374,109.8,42.683,62.266,1114.5,0.022064,64.914,0.3978,supercritical,H2O,C7732185,water,647.0,220.64,17.9,0.0558659217877095,2.0,10.871102248005801,0.0008620819
1294.0,2405.9,20812.0,4.805e-05,64.804,76.364,109.76,42.693,62.279,1115.8,0.021901,64.966,0.39845,supercritical,H2O,C7732185,water,647.0,220.64,17.9,0.0558659217877095,2.0,10.904187817258885,0.000860095
1294.0,2413.3,20859.0,4.794e-05,64.785,76.354,109.73,42.703,62.292,1117.1,0.021739,65.018,0.3991,supercritical,H2O,C7732185,water,647.0,220.64,17.9,0.0558659217877095,2.0,10.937726613488037,0.000858126
1294.0,2420.6,20907.0,4.7831e-05,64.766,76.344,109.69,42.713,62.305,1118.4,0.021578,65.07,0.39975,supercritical,H2O,C7732185,water,647.0,220.64,17.9,0.0558659217877095,2.0,10.970812182741117,0.0008561749
1294.0,2428.0,20955.0,4.7722e-05,64.748,76.334,109.66,42.723,62.317,1119.7,0.021417,65.122,0.4004,supercritical,H2O,C7732185,water,647.0,220.64,17.9,0.0558659217877095,2.0,11.004350978970269,0.0008542237999999999
1294.0,2435.3,21002.0,4.7614e-05,64.729,76.325,109.62,42.732,62.33,1121.0,0.021258,65.174,0.40105,supercritical,H2O,C7732185,water,647.0,220.64,17.9,0.0558659217877095,2.0,11.037436548223353,0.0008522906
1294.0,2442.6,21049.0,4.7508e-05,64.71,76.315,109.59,42.742,62.342,1122.3,0.021099,65.226,0.40169,supercritical,H2O,C7732185,water,647.0,220.64,17.9,0.0558659217877095,2.0,11.070522117476433,0.0008503931999999999
1294.0,2450.0,21096.0,4.7401e-05,64.692,76.305,109.55,42.752,62.354,1123.5,0.020941,65.278,0.40234,supercritical,H2O,C7732185,water,647.0,220.64,17.9,0.0558659217877095,2.0,11.104060913705585,0.0008484779
1294.0,2457.3,21144.0,4.7296e-05,64.673,76.296,109.52,42.762,62.366,1124.8,0.020784,65.329,0.40298,supercritical,H2O,C7732185,water,647.0,220.64,17.9,0.0558659217877095,2.0,11.137146482958666,0.0008465984
1294.0,2464.7,21191.0,4.7191e-05,64.655,76.286,109.48,42.771,62.378,1126.1,0.020628,65.381,0.40363,supercritical,H2O,C7732185,water,647.0,220.64,17.9,0.0558659217877095,2.0,11.170685279187817,0.0008447189
1294.0,2472.0,21237.0,4.7087e-05,64.637,76.277,109.45,42.781,62.39,1127.4,0.020472,65.433,0.40427,supercritical,H2O,C7732185,water,647.0,220.64,17.9,0.0558659217877095,2.0,11.2037708484409,0.0008428572999999999
1294.0,2479.4,21284.0,4.6983e-05,64.618,76.267,109.42,42.791,62.402,1128.7,0.020317,65.485,0.40491,supercritical,H2O,C7732185,water,647.0,220.64,17.9,0.0558659217877095,2.0,11.237309644670052,0.0008409957
1294.0,2486.7,21331.0,4.6881e-05,64.6,76.258,109.38,42.8,62.413,1130.0,0.020164,65.537,0.40555,supercritical,H2O,C7732185,water,647.0,220.64,17.9,0.0558659217877095,2.0,11.270395213923132,0.0008391698999999999
1294.0,2494.1,21377.0,4.6779e-05,64.582,76.249,109.35,42.81,62.425,1131.2,0.020011,65.589,0.40619,supercritical,H2O,C7732185,water,647.0,220.64,17.9,0.0558659217877095,2.0,11.303934010152284,0.0008373441
1294.0,2501.4,21424.0,4.6677e-05,64.564,76.24,109.32,42.819,62.436,1132.5,0.019858,65.641,0.40683,supercritical,H2O,C7732185,water,647.0,220.64,17.9,0.0558659217877095,2.0,11.337019579405368,0.0008355182999999999
1294.0,2508.8,21470.0,4.6577e-05,64.546,76.231,109.28,42.829,62.447,1133.8,0.019707,65.693,0.40747,supercritical,H2O,C7732185,water,647.0,220.64,17.9,0.0558659217877095,2.0,11.37055837563452,0.0008337282999999999
1294.0,2516.1,21516.0,4.6477e-05,64.528,76.222,109.25,42.838,62.458,1135.1,0.019556,65.745,0.4081,supercritical,H2O,C7732185,water,647.0,220.64,17.9,0.0558659217877095,2.0,11.4036439448876,0.0008319382999999999
1294.0,2523.5,21562.0,4.6377e-05,64.51,76.213,109.22,42.848,62.469,1136.4,0.019406,65.796,0.40874,supercritical,H2O,C7732185,water,647.0,220.64,17.9,0.0558659217877095,2.0,11.437182741116752,0.0008301483
1294.0,2530.8,21608.0,4.6278e-05,64.492,76.204,109.18,42.857,62.48,1137.7,0.019257,65.848,0.40937,supercritical,H2O,C7732185,water,647.0,220.64,17.9,0.0558659217877095,2.0,11.470268310369836,0.0008283762
1294.0,2538.2,21654.0,4.618e-05,64.474,76.195,109.15,42.867,62.491,1139.0,0.019109,65.9,0.41001,supercritical,H2O,C7732185,water,647.0,220.64,17.9,0.0558659217877095,2.0,11.503807106598984,0.000826622
1294.0,2545.5,21700.0,4.6083e-05,64.456,76.186,109.12,42.876,62.502,1140.2,0.018962,65.952,0.41064,supercritical,H2O,C7732185,water,647.0,220.64,17.9,0.0558659217877095,2.0,11.536892675852068,0.0008248856999999999
1294.0,2552.9,21746.0,4.5986e-05,64.438,76.178,109.08,42.885,62.512,1141.5,0.018815,66.004,0.41127,supercritical,H2O,C7732185,water,647.0,220.64,17.9,0.0558659217877095,2.0,11.57043147208122,0.0008231494
1294.0,2560.2,21791.0,4.589e-05,64.42,76.169,109.05,42.895,62.523,1142.8,0.018669,66.056,0.4119,supercritical,H2O,C7732185,water,647.0,220.64,17.9,0.0558659217877095,2.0,11.6035170413343,0.000821431
1294.0,2567.6,21837.0,4.5794e-05,64.402,76.16,109.02,42.904,62.533,1144.1,0.018524,66.108,0.41253,supercritical,H2O,C7732185,water,647.0,220.64,17.9,0.0558659217877095,2.0,11.637055837563452,0.0008197126
1294.0,2574.9,21882.0,4.5699e-05,64.385,76.152,108.99,42.913,62.543,1145.4,0.01838,66.159,0.41316,supercritical,H2O,C7732185,water,647.0,220.64,17.9,0.0558659217877095,2.0,11.670141406816535,0.0008180120999999999
1294.0,2582.3,21927.0,4.5605e-05,64.367,76.144,108.95,42.923,62.553,1146.7,0.018236,66.211,0.41379,supercritical,H2O,C7732185,water,647.0,220.64,17.9,0.0558659217877095,2.0,11.703680203045687,0.0008163294999999999
1294.0,2589.6,21973.0,4.5511e-05,64.35,76.135,108.92,42.932,62.563,1148.0,0.018093,66.263,0.41441,supercritical,H2O,C7732185,water,647.0,220.64,17.9,0.0558659217877095,2.0,11.736765772298767,0.0008146468999999999
1294.0,2597.0,22018.0,4.5418e-05,64.332,76.127,108.89,42.941,62.573,1149.2,0.017951,66.315,0.41504,supercritical,H2O,C7732185,water,647.0,220.64,17.9,0.0558659217877095,2.0,11.77030456852792,0.0008129821999999999
1294.0,2604.3,22063.0,4.5326e-05,64.314,76.119,108.86,42.95,62.583,1150.5,0.01781,66.367,0.41567,supercritical,H2O,C7732185,water,647.0,220.64,17.9,0.0558659217877095,2.0,11.803390137781003,0.0008113354
1294.0,2611.7,22107.0,4.5234e-05,64.297,76.111,108.82,42.959,62.593,1151.8,0.017669,66.419,0.41629,supercritical,H2O,C7732185,water,647.0,220.64,17.9,0.0558659217877095,2.0,11.836928934010151,0.0008096886
1294.0,2619.0,22152.0,4.5142e-05,64.28,76.102,108.79,42.968,62.602,1153.1,0.017529,66.471,0.41691,supercritical,H2O,C7732185,water,647.0,220.64,17.9,0.0558659217877095,2.0,11.870014503263235,0.0008080418
1294.0,2626.4,22197.0,4.5052e-05,64.262,76.094,108.76,42.977,62.612,1154.4,0.01739,66.522,0.41753,supercritical,H2O,C7732185,water,647.0,220.64,17.9,0.0558659217877095,2.0,11.903553299492387,0.0008064308
1294.0,2633.7,22241.0,4.4961e-05,64.245,76.086,108.73,42.987,62.621,1155.7,0.017252,66.574,0.41815,supercritical,H2O,C7732185,water,647.0,220.64,17.9,0.0558659217877095,2.0,11.936638868745467,0.0008048018999999999
1294.0,2641.1,22286.0,4.4872e-05,64.228,76.079,108.7,42.996,62.63,1156.9,0.017114,66.626,0.41878,supercritical,H2O,C7732185,water,647.0,220.64,17.9,0.0558659217877095,2.0,11.970177664974619,0.0008032088
1294.0,2648.4,22330.0,4.4783e-05,64.21,76.071,108.67,43.005,62.64,1158.2,0.016978,66.678,0.41939,supercritical,H2O,C7732185,water,647.0,220.64,17.9,0.0558659217877095,2.0,12.003263234227703,0.0008016157
1294.0,2655.7,22374.0,4.4694e-05,64.193,76.063,108.63,43.014,62.649,1159.5,0.016841,66.73,0.42001,supercritical,H2O,C7732185,water,647.0,220.64,17.9,0.0558659217877095,2.0,12.036348803480783,0.0008000226
1294.0,2663.1,22418.0,4.4606e-05,64.176,76.055,108.6,43.023,62.658,1160.8,0.016706,66.781,0.42063,supercritical,H2O,C7732185,water,647.0,220.64,17.9,0.0558659217877095,2.0,12.069887599709935,0.0007984473999999999
1294.0,2670.4,22463.0,4.4519e-05,64.159,76.048,108.57,43.031,62.667,1162.1,0.016571,66.833,0.42125,supercritical,H2O,C7732185,water,647.0,220.64,17.9,0.0558659217877095,2.0,12.102973168963018,0.0007968900999999999
1294.0,2677.8,22506.0,4.4432e-05,64.142,76.04,108.54,43.04,62.676,1163.4,0.016437,66.885,0.42186,supercritical,H2O,C7732185,water,647.0,220.64,17.9,0.0558659217877095,2.0,12.13651196519217,0.0007953327999999999
1294.0,2685.1,22550.0,4.4345e-05,64.125,76.032,108.51,43.049,62.684,1164.6,0.016304,66.937,0.42248,supercritical,H2O,C7732185,water,647.0,220.64,17.9,0.0558659217877095,2.0,12.16959753444525,0.0007937755
1294.0,2692.5,22594.0,4.4259e-05,64.108,76.025,108.48,43.058,62.693,1165.9,0.016172,66.989,0.42309,supercritical,H2O,C7732185,water,647.0,220.64,17.9,0.0558659217877095,2.0,12.203136330674402,0.0007922360999999999
1294.0,2699.8,22638.0,4.4174e-05,64.091,76.017,108.45,43.067,62.702,1167.2,0.01604,67.041,0.4237,supercritical,H2O,C7732185,water,647.0,220.64,17.9,0.0558659217877095,2.0,12.236221899927486,0.0007907146
1294.0,2707.2,22681.0,4.4089e-05,64.074,76.01,108.42,43.076,62.71,1168.5,0.015909,67.092,0.42432,supercritical,H2O,C7732185,water,647.0,220.64,17.9,0.0558659217877095,2.0,12.269760696156634,0.0007891930999999999
1294.0,2714.5,22725.0,4.4005e-05,64.058,76.003,108.39,43.084,62.719,1169.8,0.015779,67.144,0.42493,supercritical,H2O,C7732185,water,647.0,220.64,17.9,0.0558659217877095,2.0,12.302846265409718,0.0007876895
1294.0,2721.9,22768.0,4.3921e-05,64.041,75.996,108.36,43.093,62.727,1171.0,0.015649,67.196,0.42554,supercritical,H2O,C7732185,water,647.0,220.64,17.9,0.0558659217877095,2.0,12.33638506163887,0.0007861859
1294.0,2729.2,22811.0,4.3838e-05,64.024,75.988,108.33,43.102,62.735,1172.3,0.01552,67.248,0.42615,supercritical,H2O,C7732185,water,647.0,220.64,17.9,0.0558659217877095,2.0,12.36947063089195,0.0007847002
1294.0,2736.6,22854.0,4.3755e-05,64.007,75.981,108.29,43.111,62.744,1173.6,0.015392,67.299,0.42676,supercritical,H2O,C7732185,water,647.0,220.64,17.9,0.0558659217877095,2.0,12.403009427121102,0.0007832144999999999
1294.0,2743.9,22897.0,4.3673e-05,63.991,75.974,108.26,43.119,62.752,1174.9,0.015264,67.351,0.42737,supercritical,H2O,C7732185,water,647.0,220.64,17.9,0.0558659217877095,2.0,12.436094996374186,0.0007817467
1294.0,2751.3,22940.0,4.3591e-05,63.974,75.967,108.23,43.128,62.76,1176.1,0.015137,67.403,0.42797,supercritical,H2O,C7732185,water,647.0,220.64,17.9,0.0558659217877095,2.0,12.469633792603338,0.0007802789
1294.0,2758.6,22983.0,4.351e-05,63.957,75.96,108.2,43.137,62.768,1177.4,0.015011,67.455,0.42858,supercritical,H2O,C7732185,water,647.0,220.64,17.9,0.0558659217877095,2.0,12.502719361856418,0.000778829
1294.0,2766.0,23026.0,4.3429e-05,63.941,75.953,108.17,43.145,62.776,1178.7,0.014886,67.506,0.42918,supercritical,H2O,C7732185,water,647.0,220.64,17.9,0.0558659217877095,2.0,12.53625815808557,0.0007773791
1294.0,2773.3,23069.0,4.3349e-05,63.925,75.947,108.14,43.154,62.783,1180.0,0.014761,67.558,0.42979,supercritical,H2O,C7732185,water,647.0,220.64,17.9,0.0558659217877095,2.0,12.569343727338653,0.0007759471
1294.0,2780.7,23111.0,4.3269e-05,63.908,75.94,108.11,43.162,62.791,1181.2,0.014637,67.61,0.43039,supercritical,H2O,C7732185,water,647.0,220.64,17.9,0.0558659217877095,2.0,12.602882523567803,0.0007745151
1294.0,2788.0,23154.0,4.319e-05,63.892,75.933,108.08,43.171,62.799,1182.5,0.014513,67.662,0.431,supercritical,H2O,C7732185,water,647.0,220.64,17.9,0.0558659217877095,2.0,12.635968092820885,0.0007731009999999999
1294.0,2795.4,23196.0,4.3111e-05,63.875,75.926,108.06,43.18,62.806,1183.8,0.014391,67.713,0.4316,supercritical,H2O,C7732185,water,647.0,220.64,17.9,0.0558659217877095,2.0,12.669506889050037,0.0007716868999999999