Temperature (K),Pressure (bar),Density (mol/m3),Volume (m3/mol),Internal Energy (kJ/mol),Enthalpy (kJ/mol),Entropy (J/mol*K),Cv (J/mol*K),Cp (J/mol*K),Sound Spd. (m/s),Joule-Thomson (K/bar),Viscosity (uPa*s),Therm. Cond. (W/m*K),Phase,substance,substance_id,substance_name,Tc,Pc,rhoc,Vmc,Tr,Pr,Vmr
425.85,895.83,19483.0,5.1326e-05,15.478,20.076,64.453,40.497,67.612,738.56,-0.0078832,86.999,0.10457,supercritical,CO2,C124389,carbon-dioxide,304.18,73.8,10.6,0.09433962264150944,1.4,12.138617886178864,0.0005440556
425.85,898.29,19500.0,5.1282e-05,15.471,20.078,64.427,40.502,67.593,739.68,-0.0080264,87.151,0.10471,supercritical,CO2,C124389,carbon-dioxide,304.18,73.8,10.6,0.09433962264150944,1.4,12.171951219512195,0.0005435892
425.85,900.75,19517.0,5.1237e-05,15.464,20.079,64.4,40.506,67.573,740.8,-0.0081686,87.302,0.10485,supercritical,CO2,C124389,carbon-dioxide,304.18,73.8,10.6,0.09433962264150944,1.4,12.205284552845528,0.0005431122
425.85,903.21,19534.0,5.1192e-05,15.457,20.08,64.374,40.511,67.553,741.92,-0.0083098,87.453,0.105,supercritical,CO2,C124389,carbon-dioxide,304.18,73.8,10.6,0.09433962264150944,1.4,12.238617886178863,0.0005426351999999999
425.85,905.67,19551.0,5.1148e-05,15.449,20.082,64.348,40.516,67.534,743.03,-0.0084499,87.604,0.10514,supercritical,CO2,C124389,carbon-dioxide,304.18,73.8,10.6,0.09433962264150944,1.4,12.271951219512195,0.0005421687999999999
425.85,908.12,19568.0,5.1104e-05,15.442,20.083,64.322,40.52,67.514,744.15,-0.0085891,87.754,0.10528,supercritical,CO2,C124389,carbon-dioxide,304.18,73.8,10.6,0.09433962264150944,1.4,12.305149051490515,0.0005417023999999999
425.85,910.58,19585.0,5.106e-05,15.435,20.084,64.296,40.525,67.495,745.26,-0.0087273,87.905,0.10542,supercritical,CO2,C124389,carbon-dioxide,304.18,73.8,10.6,0.09433962264150944,1.4,12.33848238482385,0.000541236
425.85,913.04,19601.0,5.1017e-05,15.428,20.086,64.269,40.53,67.476,746.37,-0.0088646,88.055,0.10557,supercritical,CO2,C124389,carbon-dioxide,304.18,73.8,10.6,0.09433962264150944,1.4,12.371815718157182,0.0005407802
425.85,915.5,19618.0,5.0973e-05,15.421,20.087,64.244,40.534,67.457,747.47,-0.0090008,88.205,0.10571,supercritical,CO2,C124389,carbon-dioxide,304.18,73.8,10.6,0.09433962264150944,1.4,12.405149051490515,0.0005403138
425.85,917.96,19635.0,5.093e-05,15.414,20.089,64.218,40.539,67.438,748.58,-0.0091362,88.355,0.10585,supercritical,CO2,C124389,carbon-dioxide,304.18,73.8,10.6,0.09433962264150944,1.4,12.43848238482385,0.0005398579999999999
425.85,920.42,19651.0,5.0887e-05,15.407,20.09,64.192,40.544,67.42,749.68,-0.0092706,88.505,0.10599,supercritical,CO2,C124389,carbon-dioxide,304.18,73.8,10.6,0.09433962264150944,1.4,12.471815718157181,0.0005394022
425.85,922.87,19668.0,5.0845e-05,15.4,20.092,64.166,40.549,67.401,750.78,-0.009404,88.654,0.10614,supercritical,CO2,C124389,carbon-dioxide,304.18,73.8,10.6,0.09433962264150944,1.4,12.505013550135502,0.000538957
425.85,925.33,19684.0,5.0802e-05,15.393,20.094,64.14,40.553,67.382,751.88,-0.0095366,88.804,0.10628,supercritical,CO2,C124389,carbon-dioxide,304.18,73.8,10.6,0.09433962264150944,1.4,12.538346883468837,0.0005385012
425.85,927.79,19701.0,5.076e-05,15.386,20.095,64.115,40.558,67.364,752.98,-0.0096682,88.953,0.10642,supercritical,CO2,C124389,carbon-dioxide,304.18,73.8,10.6,0.09433962264150944,1.4,12.571680216802168,0.000538056
425.85,930.25,19717.0,5.0718e-05,15.379,20.097,64.089,40.563,67.346,754.07,-0.0097989,89.102,0.10656,supercritical,CO2,C124389,carbon-dioxide,304.18,73.8,10.6,0.09433962264150944,1.4,12.605013550135501,0.0005376107999999999
425.85,932.71,19733.0,5.0676e-05,15.372,20.098,64.064,40.568,67.327,755.16,-0.0099287,89.251,0.1067,supercritical,CO2,C124389,carbon-dioxide,304.18,73.8,10.6,0.09433962264150944,1.4,12.638346883468836,0.0005371655999999999
425.85,935.17,19749.0,5.0634e-05,15.365,20.1,64.039,40.572,67.309,756.25,-0.010058,89.4,0.10684,supercritical,CO2,C124389,carbon-dioxide,304.18,73.8,10.6,0.09433962264150944,1.4,12.671680216802168,0.0005367203999999999
425.85,937.62,19766.0,5.0593e-05,15.358,20.102,64.013,40.577,67.291,757.34,-0.010186,89.548,0.10698,supercritical,CO2,C124389,carbon-dioxide,304.18,73.8,10.6,0.09433962264150944,1.4,12.704878048780488,0.0005362858
425.85,940.08,19782.0,5.0552e-05,15.351,20.103,63.988,40.582,67.274,758.42,-0.010313,89.697,0.10712,supercritical,CO2,C124389,carbon-dioxide,304.18,73.8,10.6,0.09433962264150944,1.4,12.738211382113823,0.0005358511999999999
425.85,942.54,19798.0,5.0511e-05,15.344,20.105,63.963,40.587,67.256,759.51,-0.010439,89.845,0.10726,supercritical,CO2,C124389,carbon-dioxide,304.18,73.8,10.6,0.09433962264150944,1.4,12.771544715447154,0.0005354165999999999
425.85,945.0,19814.0,5.047e-05,15.337,20.107,63.938,40.591,67.238,760.59,-0.010565,89.993,0.1074,supercritical,CO2,C124389,carbon-dioxide,304.18,73.8,10.6,0.09433962264150944,1.4,12.804878048780488,0.000534982
425.85,947.46,19830.0,5.0429e-05,15.331,20.109,63.913,40.596,67.221,761.66,-0.010689,90.141,0.10754,supercritical,CO2,C124389,carbon-dioxide,304.18,73.8,10.6,0.09433962264150944,1.4,12.838211382113823,0.0005345473999999999
425.85,949.92,19846.0,5.0389e-05,15.324,20.11,63.888,40.601,67.203,762.74,-0.010813,90.288,0.10768,supercritical,CO2,C124389,carbon-dioxide,304.18,73.8,10.6,0.09433962264150944,1.4,12.871544715447154,0.0005341234
425.85,952.37,19862.0,5.0349e-05,15.317,20.112,63.863,40.606,67.186,763.82,-0.010936,90.436,0.10782,supercritical,CO2,C124389,carbon-dioxide,304.18,73.8,10.6,0.09433962264150944,1.4,12.904742547425474,0.0005336994
425.85,954.83,19877.0,5.0308e-05,15.31,20.114,63.838,40.61,67.169,764.89,-0.011058,90.583,0.10796,supercritical,CO2,C124389,carbon-dioxide,304.18,73.8,10.6,0.09433962264150944,1.4,12.93807588075881,0.0005332647999999999
425.85,957.29,19893.0,5.0269e-05,15.304,20.116,63.814,40.615,67.151,765.96,-0.01118,90.731,0.1081,supercritical,CO2,C124389,carbon-dioxide,304.18,73.8,10.6,0.09433962264150944,1.4,12.97140921409214,0.0005328514
425.85,959.75,19909.0,5.0229e-05,15.297,20.118,63.789,40.62,67.134,767.03,-0.0113,90.878,0.10824,supercritical,CO2,C124389,carbon-dioxide,304.18,73.8,10.6,0.09433962264150944,1.4,13.004742547425474,0.0005324274
425.85,962.21,19925.0,5.0189e-05,15.29,20.12,63.764,40.625,67.117,768.09,-0.01142,91.025,0.10838,supercritical,CO2,C124389,carbon-dioxide,304.18,73.8,10.6,0.09433962264150944,1.4,13.038075880758809,0.0005320033999999999
425.85,964.67,19940.0,5.015e-05,15.284,20.121,63.74,40.629,67.101,769.16,-0.011539,91.171,0.10852,supercritical,CO2,C124389,carbon-dioxide,304.18,73.8,10.6,0.09433962264150944,1.4,13.07140921409214,0.00053159
425.85,967.12,19956.0,5.0111e-05,15.277,20.123,63.715,40.634,67.084,770.22,-0.011657,91.318,0.10865,supercritical,CO2,C124389,carbon-dioxide,304.18,73.8,10.6,0.09433962264150944,1.4,13.104607046070461,0.0005311765999999999
425.85,969.58,19971.0,5.0072e-05,15.27,20.125,63.691,40.639,67.067,771.28,-0.011774,91.464,0.10879,supercritical,CO2,C124389,carbon-dioxide,304.18,73.8,10.6,0.09433962264150944,1.4,13.137940379403796,0.0005307631999999999
425.85,972.04,19987.0,5.0033e-05,15.264,20.127,63.667,40.644,67.051,772.34,-0.011891,91.611,0.10893,supercritical,CO2,C124389,carbon-dioxide,304.18,73.8,10.6,0.09433962264150944,1.4,13.171273712737127,0.0005303498
425.85,974.5,20002.0,4.9995e-05,15.257,20.129,63.642,40.648,67.034,773.39,-0.012007,91.757,0.10907,supercritical,CO2,C124389,carbon-dioxide,304.18,73.8,10.6,0.09433962264150944,1.4,13.20460704607046,0.0005299469999999999
425.85,976.96,20017.0,4.9956e-05,15.251,20.131,63.618,40.653,67.018,774.45,-0.012122,91.903,0.10921,supercritical,CO2,C124389,carbon-dioxide,304.18,73.8,10.6,0.09433962264150944,1.4,13.237940379403796,0.0005295336
425.85,979.42,20033.0,4.9918e-05,15.244,20.133,63.594,40.658,67.002,775.5,-0.012236,92.048,0.10934,supercritical,CO2,C124389,carbon-dioxide,304.18,73.8,10.6,0.09433962264150944,1.4,13.271273712737127,0.0005291308
425.85,981.87,20048.0,4.988e-05,15.238,20.135,63.57,40.663,66.986,776.55,-0.01235,92.194,0.10948,supercritical,CO2,C124389,carbon-dioxide,304.18,73.8,10.6,0.09433962264150944,1.4,13.304471544715447,0.0005287279999999999
425.85,984.33,20063.0,4.9842e-05,15.231,20.137,63.546,40.668,66.969,777.6,-0.012463,92.34,0.10962,supercritical,CO2,C124389,carbon-dioxide,304.18,73.8,10.6,0.09433962264150944,1.4,13.337804878048782,0.0005283252
425.85,986.79,20079.0,4.9804e-05,15.225,20.139,63.522,40.672,66.953,778.64,-0.012575,92.485,0.10976,supercritical,CO2,C124389,carbon-dioxide,304.18,73.8,10.6,0.09433962264150944,1.4,13.371138211382114,0.0005279223999999999
425.85,989.25,20094.0,4.9767e-05,15.218,20.141,63.498,40.677,66.938,779.69,-0.012687,92.63,0.10989,supercritical,CO2,C124389,carbon-dioxide,304.18,73.8,10.6,0.09433962264150944,1.4,13.404471544715447,0.0005275302
425.85,991.71,20109.0,4.973e-05,15.212,20.144,63.475,40.682,66.922,780.73,-0.012797,92.775,0.11003,supercritical,CO2,C124389,carbon-dioxide,304.18,73.8,10.6,0.09433962264150944,1.4,13.437804878048782,0.0005271379999999999
425.85,994.17,20124.0,4.9692e-05,15.205,20.146,63.451,40.687,66.906,781.77,-0.012907,92.92,0.11017,supercritical,CO2,C124389,carbon-dioxide,304.18,73.8,10.6,0.09433962264150944,1.4,13.471138211382113,0.0005267351999999999
425.85,996.62,20139.0,4.9655e-05,15.199,20.148,63.427,40.692,66.89,782.81,-0.013017,93.065,0.1103,supercritical,CO2,C124389,carbon-dioxide,304.18,73.8,10.6,0.09433962264150944,1.4,13.504336043360434,0.000526343
425.85,999.08,20154.0,4.9618e-05,15.193,20.15,63.404,40.696,66.875,783.84,-0.013125,93.209,0.11044,supercritical,CO2,C124389,carbon-dioxide,304.18,73.8,10.6,0.09433962264150944,1.4,13.537669376693769,0.0005259507999999999
425.85,1001.5,20169.0,4.9582e-05,15.186,20.152,63.38,40.701,66.86,784.88,-0.013233,93.354,0.11058,supercritical,CO2,C124389,carbon-dioxide,304.18,73.8,10.6,0.09433962264150944,1.4,13.570460704607047,0.0005255692
425.85,1004.0,20184.0,4.9545e-05,15.18,20.154,63.356,40.706,66.844,785.91,-0.01334,93.498,0.11071,supercritical,CO2,C124389,carbon-dioxide,304.18,73.8,10.6,0.09433962264150944,1.4,13.604336043360433,0.0005251769999999999
425.85,1006.5,20198.0,4.9509e-05,15.174,20.156,63.333,40.711,66.829,786.94,-0.013447,93.642,0.11085,supercritical,CO2,C124389,carbon-dioxide,304.18,73.8,10.6,0.09433962264150944,1.4,13.638211382113822,0.0005247954
425.85,1008.9,20213.0,4.9473e-05,15.167,20.159,63.31,40.716,66.814,787.97,-0.013553,93.786,0.11098,supercritical,CO2,C124389,carbon-dioxide,304.18,73.8,10.6,0.09433962264150944,1.4,13.670731707317074,0.0005244138
425.85,1011.4,20228.0,4.9437e-05,15.161,20.161,63.286,40.72,66.799,788.99,-0.013658,93.93,0.11112,supercritical,CO2,C124389,carbon-dioxide,304.18,73.8,10.6,0.09433962264150944,1.4,13.70460704607046,0.0005240322
425.85,1013.8,20243.0,4.9401e-05,15.155,20.163,63.263,40.725,66.784,790.02,-0.013763,94.074,0.11125,supercritical,CO2,C124389,carbon-dioxide,304.18,73.8,10.6,0.09433962264150944,1.4,13.737127371273713,0.0005236506
425.85,1016.3,20257.0,4.9365e-05,15.149,20.165,63.24,40.73,66.769,791.04,-0.013867,94.218,0.11139,supercritical,CO2,C124389,carbon-dioxide,304.18,73.8,10.6,0.09433962264150944,1.4,13.7710027100271,0.0005232689999999999
425.85,1018.7,20272.0,4.9329e-05,15.142,20.168,63.217,40.735,66.754,792.06,-0.01397,94.361,0.11153,supercritical,CO2,C124389,carbon-dioxide,304.18,73.8,10.6,0.09433962264150944,1.4,13.803523035230354,0.0005228874
425.85,1021.2,20286.0,4.9294e-05,15.136,20.17,63.194,40.74,66.739,793.08,-0.014073,94.504,0.11166,supercritical,CO2,C124389,carbon-dioxide,304.18,73.8,10.6,0.09433962264150944,1.4,13.83739837398374,0.0005225163999999999
425.85,1023.7,20301.0,4.9259e-05,15.13,20.172,63.171,40.745,66.724,794.1,-0.014175,94.648,0.1118,supercritical,CO2,C124389,carbon-dioxide,304.18,73.8,10.6,0.09433962264150944,1.4,13.871273712737128,0.0005221453999999999
425.85,1026.1,20315.0,4.9224e-05,15.124,20.175,63.148,40.749,66.71,795.11,-0.014276,94.791,0.11193,supercritical,CO2,C124389,carbon-dioxide,304.18,73.8,10.6,0.09433962264150944,1.4,13.90379403794038,0.0005217743999999999
425.85,1028.6,20330.0,4.9189e-05,15.118,20.177,63.125,40.754,66.695,796.13,-0.014377,94.934,0.11206,supercritical,CO2,C124389,carbon-dioxide,304.18,73.8,10.6,0.09433962264150944,1.4,13.937669376693766,0.0005214034
425.85,1031.0,20344.0,4.9154e-05,15.111,20.179,63.102,40.759,66.681,797.14,-0.014477,95.077,0.1122,supercritical,CO2,C124389,carbon-dioxide,304.18,73.8,10.6,0.09433962264150944,1.4,13.97018970189702,0.0005210324
425.85,1033.5,20359.0,4.9119e-05,15.105,20.182,63.079,40.764,66.667,798.15,-0.014577,95.219,0.11233,supercritical,CO2,C124389,carbon-dioxide,304.18,73.8,10.6,0.09433962264150944,1.4,14.004065040650406,0.0005206614
425.85,1036.0,20373.0,4.9085e-05,15.099,20.184,63.057,40.769,66.652,799.16,-0.014676,95.362,0.11247,supercritical,CO2,C124389,carbon-dioxide,304.18,73.8,10.6,0.09433962264150944,1.4,14.037940379403794,0.000520301
425.85,1038.4,20387.0,4.905e-05,15.093,20.187,63.034,40.774,66.638,800.16,-0.014774,95.504,0.1126,supercritical,CO2,C124389,carbon-dioxide,304.18,73.8,10.6,0.09433962264150944,1.4,14.070460704607047,0.0005199299999999999
425.85,1040.9,20402.0,4.9016e-05,15.087,20.189,63.011,40.778,66.624,801.17,-0.014872,95.646,0.11274,supercritical,CO2,C124389,carbon-dioxide,304.18,73.8,10.6,0.09433962264150944,1.4,14.104336043360435,0.0005195696
425.85,1043.3,20416.0,4.8982e-05,15.081,20.191,62.989,40.783,66.61,802.17,-0.014969,95.789,0.11287,supercritical,CO2,C124389,carbon-dioxide,304.18,73.8,10.6,0.09433962264150944,1.4,14.136856368563686,0.0005192091999999999
425.85,1045.8,20430.0,4.8948e-05,15.075,20.194,62.966,40.788,66.596,803.17,-0.015066,95.931,0.113,supercritical,CO2,C124389,carbon-dioxide,304.18,73.8,10.6,0.09433962264150944,1.4,14.170731707317072,0.0005188488
425.85,1048.2,20444.0,4.8914e-05,15.069,20.196,62.944,40.793,66.582,804.17,-0.015162,96.072,0.11314,supercritical,CO2,C124389,carbon-dioxide,304.18,73.8,10.6,0.09433962264150944,1.4,14.203252032520327,0.0005184883999999999
425.85,1050.7,20458.0,4.888e-05,15.063,20.199,62.922,40.798,66.568,805.17,-0.015257,96.214,0.11327,supercritical,CO2,C124389,carbon-dioxide,304.18,73.8,10.6,0.09433962264150944,1.4,14.237127371273713,0.000518128
425.85,1053.2,20472.0,4.8847e-05,15.057,20.201,62.899,40.803,66.555,806.16,-0.015352,96.356,0.1134,supercritical,CO2,C124389,carbon-dioxide,304.18,73.8,10.6,0.09433962264150944,1.4,14.271002710027101,0.0005177782
425.85,1055.6,20486.0,4.8814e-05,15.051,20.204,62.877,40.808,66.541,807.15,-0.015446,96.497,0.11354,supercritical,CO2,C124389,carbon-dioxide,304.18,73.8,10.6,0.09433962264150944,1.4,14.303523035230352,0.0005174283999999999
425.85,1058.1,20500.0,4.878e-05,15.045,20.206,62.855,40.812,66.527,808.15,-0.01554,96.639,0.11367,supercritical,CO2,C124389,carbon-dioxide,304.18,73.8,10.6,0.09433962264150944,1.4,14.337398373983739,0.000517068
425.85,1060.5,20514.0,4.8747e-05,15.039,20.209,62.833,40.817,66.514,809.14,-0.015633,96.78,0.1138,supercritical,CO2,C124389,carbon-dioxide,304.18,73.8,10.6,0.09433962264150944,1.4,14.369918699186993,0.0005167182
425.85,1063.0,20528.0,4.8714e-05,15.033,20.212,62.81,40.822,66.5,810.13,-0.015726,96.921,0.11393,supercritical,CO2,C124389,carbon-dioxide,304.18,73.8,10.6,0.09433962264150944,1.4,14.40379403794038,0.0005163683999999999
425.85,1065.5,20542.0,4.8681e-05,15.027,20.214,62.788,40.827,66.487,811.11,-0.015818,97.062,0.11407,supercritical,CO2,C124389,carbon-dioxide,304.18,73.8,10.6,0.09433962264150944,1.4,14.437669376693767,0.0005160185999999999
425.85,1067.9,20556.0,4.8649e-05,15.021,20.217,62.766,40.832,66.474,812.1,-0.01591,97.203,0.1142,supercritical,CO2,C124389,carbon-dioxide,304.18,73.8,10.6,0.09433962264150944,1.4,14.47018970189702,0.0005156793999999999
425.85,1070.4,20569.0,4.8616e-05,15.016,20.219,62.744,40.837,66.46,813.08,-0.016001,97.344,0.11433,supercritical,CO2,C124389,carbon-dioxide,304.18,73.8,10.6,0.09433962264150944,1.4,14.504065040650408,0.0005153295999999999
425.85,1072.8,20583.0,4.8584e-05,15.01,20.222,62.722,40.842,66.447,814.06,-0.016091,97.484,0.11446,supercritical,CO2,C124389,carbon-dioxide,304.18,73.8,10.6,0.09433962264150944,1.4,14.536585365853659,0.0005149903999999999
425.85,1075.3,20597.0,4.8551e-05,15.004,20.225,62.701,40.846,66.434,815.04,-0.016181,97.625,0.1146,supercritical,CO2,C124389,carbon-dioxide,304.18,73.8,10.6,0.09433962264150944,1.4,14.570460704607045,0.0005146406
425.85,1077.7,20610.0,4.8519e-05,14.998,20.227,62.679,40.851,66.421,816.02,-0.016271,97.765,0.11473,supercritical,CO2,C124389,carbon-dioxide,304.18,73.8,10.6,0.09433962264150944,1.4,14.6029810298103,0.0005143014
425.85,1080.2,20624.0,4.8487e-05,14.992,20.23,62.657,40.856,66.408,817.0,-0.016359,97.906,0.11486,supercritical,CO2,C124389,carbon-dioxide,304.18,73.8,10.6,0.09433962264150944,1.4,14.636856368563686,0.0005139621999999999
425.85,1082.7,20638.0,4.8455e-05,14.987,20.233,62.635,40.861,66.395,817.97,-0.016448,98.046,0.11499,supercritical,CO2,C124389,carbon-dioxide,304.18,73.8,10.6,0.09433962264150944,1.4,14.670731707317074,0.0005136229999999999
425.85,1085.1,20651.0,4.8423e-05,14.981,20.235,62.614,40.866,66.382,818.94,-0.016536,98.186,0.11512,supercritical,CO2,C124389,carbon-dioxide,304.18,73.8,10.6,0.09433962264150944,1.4,14.703252032520325,0.0005132838
425.85,1087.6,20665.0,4.8392e-05,14.975,20.238,62.592,40.871,66.37,819.91,-0.016623,98.326,0.11525,supercritical,CO2,C124389,carbon-dioxide,304.18,73.8,10.6,0.09433962264150944,1.4,14.737127371273711,0.0005129552
425.85,1090.0,20678.0,4.836e-05,14.969,20.241,62.571,40.876,66.357,820.88,-0.01671,98.465,0.11539,supercritical,CO2,C124389,carbon-dioxide,304.18,73.8,10.6,0.09433962264150944,1.4,14.769647696476966,0.0005126159999999999
425.85,1092.5,20692.0,4.8329e-05,14.964,20.243,62.549,40.881,66.344,821.85,-0.016796,98.605,0.11552,supercritical,CO2,C124389,carbon-dioxide,304.18,73.8,10.6,0.09433962264150944,1.4,14.803523035230352,0.0005122874
425.85,1095.0,20705.0,4.8298e-05,14.958,20.246,62.528,40.886,66.332,822.82,-0.016882,98.745,0.11565,supercritical,CO2,C124389,carbon-dioxide,304.18,73.8,10.6,0.09433962264150944,1.4,14.83739837398374,0.0005119587999999999
425.85,1097.4,20718.0,4.8266e-05,14.952,20.249,62.506,40.89,66.319,823.78,-0.016968,98.884,0.11578,supercritical,CO2,C124389,carbon-dioxide,304.18,73.8,10.6,0.09433962264150944,1.4,14.869918699186993,0.0005116195999999999
425.85,1099.9,20732.0,4.8235e-05,14.946,20.252,62.485,40.895,66.307,824.75,-0.017053,99.024,0.11591,supercritical,CO2,C124389,carbon-dioxide,304.18,73.8,10.6,0.09433962264150944,1.4,14.903794037940381,0.000511291
425.85,1102.3,20745.0,4.8204e-05,14.941,20.255,62.464,40.9,66.295,825.71,-0.017137,99.163,0.11604,supercritical,CO2,C124389,carbon-dioxide,304.18,73.8,10.6,0.09433962264150944,1.4,14.936314363143632,0.0005109623999999999
425.85,1104.8,20758.0,4.8174e-05,14.935,20.257,62.442,40.905,66.282,826.67,-0.017221,99.302,0.11617,supercritical,CO2,C124389,carbon-dioxide,304.18,73.8,10.6,0.09433962264150944,1.4,14.970189701897018,0.0005106444
425.85,1107.2,20771.0,4.8143e-05,14.929,20.26,62.421,40.91,66.27,827.63,-0.017304,99.441,0.1163,supercritical,CO2,C124389,carbon-dioxide,304.18,73.8,10.6,0.09433962264150944,1.4,15.002710027100273,0.0005103158
425.85,1109.7,20785.0,4.8112e-05,14.924,20.263,62.4,40.915,66.258,828.58,-0.017388,99.58,0.11643,supercritical,CO2,C124389,carbon-dioxide,304.18,73.8,10.6,0.09433962264150944,1.4,15.036585365853659,0.0005099872
425.85,1112.2,20798.0,4.8082e-05,14.918,20.266,62.379,40.92,66.246,829.54,-0.01747,99.719,0.11656,supercritical,CO2,C124389,carbon-dioxide,304.18,73.8,10.6,0.09433962264150944,1.4,15.070460704607047,0.0005096692
425.85,1114.6,20811.0,4.8052e-05,14.913,20.269,62.358,40.925,66.234,830.49,-0.017552,99.857,0.11669,supercritical,CO2,C124389,carbon-dioxide,304.18,73.8,10.6,0.09433962264150944,1.4,15.102981029810298,0.0005093512