Temperature (K),Pressure (bar),Density (mol/m3),Volume (m3/mol),Internal Energy (kJ/mol),Enthalpy (kJ/mol),Entropy (J/mol*K),Cv (J/mol*K),Cp (J/mol*K),Sound Spd. (m/s),Joule-Thomson (K/bar),Viscosity (uPa*s),Therm. Cond. (W/m*K),Phase,substance,substance_id,substance_name,Tc,Pc,rhoc,Vmc,Tr,Pr,Vmr
200.95,770.86,29066.0,3.4404e-05,-0.25105,2.401,125.53,25.733,45.091,789.85,-0.031715,87.845,0.11018,supercritical,O2,C7782447,oxygen,154.58,50.43,13.6,0.07352941176470588,1.3,15.285742613523697,0.0004678944
200.95,772.23,29078.0,3.439e-05,-0.2527,2.403,125.52,25.736,45.081,790.47,-0.031766,87.943,0.11028,supercritical,O2,C7782447,oxygen,154.58,50.43,13.6,0.07352941176470588,1.3,15.312908982748365,0.000467704
200.95,773.59,29090.0,3.4376e-05,-0.25434,2.4049,125.5,25.739,45.072,791.1,-0.031817,88.042,0.11038,supercritical,O2,C7782447,oxygen,154.58,50.43,13.6,0.07352941176470588,1.3,15.33987705730716,0.00046751359999999995
200.95,774.96,29102.0,3.4362e-05,-0.25598,2.4069,125.49,25.742,45.062,791.73,-0.031867,88.141,0.11048,supercritical,O2,C7782447,oxygen,154.58,50.43,13.6,0.07352941176470588,1.3,15.367043426531827,0.00046732319999999997
200.95,776.32,29114.0,3.4348e-05,-0.25762,2.4089,125.48,25.745,45.053,792.35,-0.031917,88.239,0.11058,supercritical,O2,C7782447,oxygen,154.58,50.43,13.6,0.07352941176470588,1.3,15.394011501090622,0.00046713279999999993
200.95,777.68,29126.0,3.4334e-05,-0.25926,2.4108,125.46,25.748,45.043,792.98,-0.031967,88.338,0.11068,supercritical,O2,C7782447,oxygen,154.58,50.43,13.6,0.07352941176470588,1.3,15.420979575649413,0.0004669424
200.95,779.05,29138.0,3.432e-05,-0.26089,2.4128,125.45,25.751,45.034,793.6,-0.032017,88.436,0.11078,supercritical,O2,C7782447,oxygen,154.58,50.43,13.6,0.07352941176470588,1.3,15.448145944874081,0.00046675199999999997
200.95,780.41,29149.0,3.4306e-05,-0.26252,2.4148,125.44,25.754,45.025,794.23,-0.032067,88.535,0.11088,supercritical,O2,C7782447,oxygen,154.58,50.43,13.6,0.07352941176470588,1.3,15.475114019432876,0.0004665616
200.95,781.78,29161.0,3.4292e-05,-0.26414,2.4167,125.42,25.757,45.016,794.85,-0.032116,88.633,0.11098,supercritical,O2,C7782447,oxygen,154.58,50.43,13.6,0.07352941176470588,1.3,15.502280388657544,0.00046637120000000005
200.95,783.14,29173.0,3.4278e-05,-0.26576,2.4187,125.41,25.76,45.006,795.47,-0.032165,88.732,0.11108,supercritical,O2,C7782447,oxygen,154.58,50.43,13.6,0.07352941176470588,1.3,15.529248463216339,0.00046618079999999996
200.95,784.51,29185.0,3.4264e-05,-0.26738,2.4207,125.4,25.763,44.997,796.09,-0.032214,88.83,0.11118,supercritical,O2,C7782447,oxygen,154.58,50.43,13.6,0.07352941176470588,1.3,15.556414832441007,0.00046599040000000003
200.95,785.88,29197.0,3.4251e-05,-0.26899,2.4227,125.38,25.766,44.988,796.71,-0.032263,88.928,0.11128,supercritical,O2,C7782447,oxygen,154.58,50.43,13.6,0.07352941176470588,1.3,15.583581201665675,0.0004658136
200.95,787.24,29208.0,3.4237e-05,-0.2706,2.4247,125.37,25.769,44.979,797.33,-0.032311,89.027,0.11137,supercritical,O2,C7782447,oxygen,154.58,50.43,13.6,0.07352941176470588,1.3,15.61054927622447,0.00046562319999999993
200.95,788.61,29220.0,3.4223e-05,-0.27221,2.4266,125.36,25.772,44.97,797.95,-0.03236,89.125,0.11147,supercritical,O2,C7782447,oxygen,154.58,50.43,13.6,0.07352941176470588,1.3,15.637715645449138,0.0004654328
200.95,789.97,29232.0,3.4209e-05,-0.27382,2.4286,125.34,25.775,44.961,798.57,-0.032408,89.223,0.11157,supercritical,O2,C7782447,oxygen,154.58,50.43,13.6,0.07352941176470588,1.3,15.664683720007933,0.00046524239999999996
200.95,791.34,29243.0,3.4196e-05,-0.27542,2.4306,125.33,25.778,44.952,799.19,-0.032456,89.321,0.11167,supercritical,O2,C7782447,oxygen,154.58,50.43,13.6,0.07352941176470588,1.3,15.6918500892326,0.0004650656
200.95,792.7,29255.0,3.4182e-05,-0.27701,2.4326,125.32,25.781,44.943,799.8,-0.032504,89.419,0.11177,supercritical,O2,C7782447,oxygen,154.58,50.43,13.6,0.07352941176470588,1.3,15.718818163791395,0.00046487519999999997
200.95,794.07,29267.0,3.4169e-05,-0.27861,2.4346,125.3,25.784,44.934,800.42,-0.032551,89.517,0.11187,supercritical,O2,C7782447,oxygen,154.58,50.43,13.6,0.07352941176470588,1.3,15.745984533016063,0.00046469839999999996
200.95,795.43,29278.0,3.4155e-05,-0.2802,2.4366,125.29,25.787,44.925,801.04,-0.032598,89.615,0.11196,supercritical,O2,C7782447,oxygen,154.58,50.43,13.6,0.07352941176470588,1.3,15.772952607574855,0.000464508
200.95,796.79,29290.0,3.4142e-05,-0.28178,2.4386,125.28,25.79,44.916,801.65,-0.032646,89.713,0.11206,supercritical,O2,C7782447,oxygen,154.58,50.43,13.6,0.07352941176470588,1.3,15.79992068213365,0.00046433119999999997
200.95,798.16,29301.0,3.4128e-05,-0.28337,2.4406,125.26,25.793,44.907,802.26,-0.032692,89.811,0.11216,supercritical,O2,C7782447,oxygen,154.58,50.43,13.6,0.07352941176470588,1.3,15.827087051358317,0.00046414080000000004
200.95,799.52,29313.0,3.4115e-05,-0.28495,2.4426,125.25,25.796,44.898,802.88,-0.032739,89.909,0.11226,supercritical,O2,C7782447,oxygen,154.58,50.43,13.6,0.07352941176470588,1.3,15.854055125917112,0.000463964
200.95,800.89,29324.0,3.4101e-05,-0.28652,2.4446,125.24,25.799,44.889,803.49,-0.032786,90.007,0.11236,supercritical,O2,C7782447,oxygen,154.58,50.43,13.6,0.07352941176470588,1.3,15.88122149514178,0.00046377359999999994
200.95,802.25,29336.0,3.4088e-05,-0.2881,2.4466,125.22,25.802,44.881,804.1,-0.032832,90.105,0.11245,supercritical,O2,C7782447,oxygen,154.58,50.43,13.6,0.07352941176470588,1.3,15.908189569700575,0.00046359680000000004
200.95,803.62,29347.0,3.4075e-05,-0.28967,2.4486,125.21,25.805,44.872,804.71,-0.032878,90.203,0.11255,supercritical,O2,C7782447,oxygen,154.58,50.43,13.6,0.07352941176470588,1.3,15.935355938925243,0.00046342000000000003
200.95,804.99,29359.0,3.4061e-05,-0.29123,2.4507,125.2,25.808,44.863,805.32,-0.032924,90.301,0.11265,supercritical,O2,C7782447,oxygen,154.58,50.43,13.6,0.07352941176470588,1.3,15.96252230814991,0.00046322959999999994
200.95,806.35,29370.0,3.4048e-05,-0.2928,2.4527,125.18,25.811,44.855,805.93,-0.03297,90.399,0.11275,supercritical,O2,C7782447,oxygen,154.58,50.43,13.6,0.07352941176470588,1.3,15.989490382708706,0.00046305280000000004
200.95,807.72,29382.0,3.4035e-05,-0.29436,2.4547,125.17,25.814,44.846,806.54,-0.033015,90.496,0.11284,supercritical,O2,C7782447,oxygen,154.58,50.43,13.6,0.07352941176470588,1.3,16.016656751933375,0.00046287600000000003
200.95,809.08,29393.0,3.4022e-05,-0.29592,2.4567,125.16,25.817,44.837,807.15,-0.033061,90.594,0.11294,supercritical,O2,C7782447,oxygen,154.58,50.43,13.6,0.07352941176470588,1.3,16.043624826492167,0.00046269919999999997
200.95,810.45,29404.0,3.4009e-05,-0.29747,2.4587,125.14,25.82,44.829,807.76,-0.033106,90.692,0.11304,supercritical,O2,C7782447,oxygen,154.58,50.43,13.6,0.07352941176470588,1.3,16.070791195716836,0.00046252239999999996
200.95,811.81,29416.0,3.3995e-05,-0.29902,2.4608,125.13,25.823,44.82,808.36,-0.033151,90.789,0.11314,supercritical,O2,C7782447,oxygen,154.58,50.43,13.6,0.07352941176470588,1.3,16.097759270275628,0.00046233200000000003
200.95,813.17,29427.0,3.3982e-05,-0.30057,2.4628,125.12,25.826,44.812,808.97,-0.033196,90.887,0.11323,supercritical,O2,C7782447,oxygen,154.58,50.43,13.6,0.07352941176470588,1.3,16.124727344834422,0.0004621552
200.95,814.54,29438.0,3.3969e-05,-0.30211,2.4648,125.11,25.829,44.803,809.58,-0.03324,90.984,0.11333,supercritical,O2,C7782447,oxygen,154.58,50.43,13.6,0.07352941176470588,1.3,16.151893714059092,0.00046197839999999996
200.95,815.9,29450.0,3.3956e-05,-0.30365,2.4669,125.09,25.832,44.795,810.18,-0.033285,91.082,0.11343,supercritical,O2,C7782447,oxygen,154.58,50.43,13.6,0.07352941176470588,1.3,16.178861788617887,0.00046180159999999995
200.95,817.27,29461.0,3.3943e-05,-0.30519,2.4689,125.08,25.835,44.787,810.78,-0.033329,91.179,0.11352,supercritical,O2,C7782447,oxygen,154.58,50.43,13.6,0.07352941176470588,1.3,16.206028157842553,0.00046162479999999994
200.95,818.63,29472.0,3.393e-05,-0.30673,2.4709,125.07,25.838,44.778,811.39,-0.033373,91.277,0.11362,supercritical,O2,C7782447,oxygen,154.58,50.43,13.6,0.07352941176470588,1.3,16.232996232401348,0.000461448
200.95,820.0,29483.0,3.3918e-05,-0.30826,2.473,125.05,25.841,44.77,811.99,-0.033417,91.374,0.11372,supercritical,O2,C7782447,oxygen,154.58,50.43,13.6,0.07352941176470588,1.3,16.260162601626018,0.0004612848