Temperature (K),Pressure (bar),Density (mol/m3),Volume (m3/mol),Internal Energy (kJ/mol),Enthalpy (kJ/mol),Entropy (J/mol*K),Cv (J/mol*K),Cp (J/mol*K),Sound Spd. (m/s),Joule-Thomson (K/bar),Viscosity (uPa*s),Therm. Cond. (W/m*K),Phase,substance,substance_id,substance_name,Tc,Pc,rhoc,Vmc,Tr,Pr,Vmr
647.0,715.79,38268.0,2.6131e-05,28.415,30.285,65.925,51.407,93.03,1024.4,0.01701,83.228,0.5387,liquid,H2O,C7732185,water,647.0,220.64,17.9,0.0558659217877095,1.0,3.244153372008702,0.0004677449
647.0,723.14,38338.0,2.6084e-05,28.387,30.274,65.877,51.396,92.748,1028.7,0.016633,83.435,0.53987,liquid,H2O,C7732185,water,647.0,220.64,17.9,0.0558659217877095,1.0,3.277465554749819,0.00046690359999999995
647.0,730.49,38408.0,2.6037e-05,28.36,30.262,65.83,51.384,92.472,1032.9,0.016265,83.64,0.54103,liquid,H2O,C7732185,water,647.0,220.64,17.9,0.0558659217877095,1.0,3.3107777374909357,0.0004660623
647.0,737.83,38476.0,2.599e-05,28.334,30.251,65.784,51.373,92.202,1037.1,0.015904,83.844,0.54218,liquid,H2O,C7732185,water,647.0,220.64,17.9,0.0558659217877095,1.0,3.3440445975344457,0.000465221
647.0,745.18,38544.0,2.5945e-05,28.307,30.241,65.738,51.362,91.938,1041.3,0.01555,84.046,0.54332,liquid,H2O,C7732185,water,647.0,220.64,17.9,0.0558659217877095,1.0,3.377356780275562,0.0004644155
647.0,752.53,38611.0,2.59e-05,28.281,30.23,65.693,51.352,91.68,1045.4,0.015204,84.247,0.54445,liquid,H2O,C7732185,water,647.0,220.64,17.9,0.0558659217877095,1.0,3.4106689630166787,0.00046360999999999993
647.0,759.88,38677.0,2.5855e-05,28.256,30.22,65.648,51.342,91.426,1049.5,0.014864,84.447,0.54558,liquid,H2O,C7732185,water,647.0,220.64,17.9,0.0558659217877095,1.0,3.4439811457577956,0.00046280449999999994
647.0,767.23,38743.0,2.5811e-05,28.23,30.21,65.603,51.332,91.179,1053.5,0.014531,84.645,0.5467,liquid,H2O,C7732185,water,647.0,220.64,17.9,0.0558659217877095,1.0,3.4772933284989125,0.00046201689999999997
647.0,774.58,38807.0,2.5768e-05,28.205,30.201,65.559,51.323,90.936,1057.6,0.014205,84.841,0.54782,liquid,H2O,C7732185,water,647.0,220.64,17.9,0.0558659217877095,1.0,3.5106055112400294,0.0004612472
647.0,781.92,38872.0,2.5726e-05,28.18,30.191,65.515,51.313,90.698,1061.5,0.013884,85.036,0.54893,liquid,H2O,C7732185,water,647.0,220.64,17.9,0.0558659217877095,1.0,3.543872371283539,0.0004604954
647.0,789.27,38935.0,2.5684e-05,28.155,30.182,65.472,51.304,90.464,1065.5,0.01357,85.23,0.55003,liquid,H2O,C7732185,water,647.0,220.64,17.9,0.0558659217877095,1.0,3.577184554024656,0.00045974359999999997
647.0,796.62,38998.0,2.5642e-05,28.131,30.173,65.429,51.296,90.236,1069.4,0.013262,85.423,0.55112,liquid,H2O,C7732185,water,647.0,220.64,17.9,0.0558659217877095,1.0,3.6104967367657728,0.00045899179999999996
647.0,803.97,39061.0,2.5601e-05,28.107,30.165,65.386,51.287,90.011,1073.3,0.012959,85.614,0.55221,liquid,H2O,C7732185,water,647.0,220.64,17.9,0.0558659217877095,1.0,3.6438089195068892,0.0004582579
647.0,811.32,39123.0,2.5561e-05,28.083,30.156,65.344,51.279,89.791,1077.1,0.012662,85.804,0.55329,liquid,H2O,C7732185,water,647.0,220.64,17.9,0.0558659217877095,1.0,3.677121102248006,0.0004575419
647.0,818.66,39184.0,2.5521e-05,28.059,30.148,65.302,51.271,89.575,1081.0,0.01237,85.993,0.55437,liquid,H2O,C7732185,water,647.0,220.64,17.9,0.0558659217877095,1.0,3.7103879622915157,0.00045682589999999993
647.0,826.01,39245.0,2.5481e-05,28.035,30.14,65.261,51.263,89.363,1084.8,0.012083,86.18,0.55544,liquid,H2O,C7732185,water,647.0,220.64,17.9,0.0558659217877095,1.0,3.7437001450326326,0.00045610989999999993
647.0,833.36,39305.0,2.5442e-05,28.012,30.132,65.22,51.256,89.155,1088.5,0.011802,86.367,0.5565,liquid,H2O,C7732185,water,647.0,220.64,17.9,0.0558659217877095,1.0,3.7770123277737495,0.0004554118
647.0,840.71,39365.0,2.5404e-05,27.989,30.125,65.179,51.248,88.951,1092.3,0.011525,86.552,0.55756,liquid,H2O,C7732185,water,647.0,220.64,17.9,0.0558659217877095,1.0,3.8103245105148664,0.0004547316
647.0,848.06,39424.0,2.5366e-05,27.966,30.117,65.139,51.241,88.75,1096.0,0.011253,86.736,0.55862,liquid,H2O,C7732185,water,647.0,220.64,17.9,0.0558659217877095,1.0,3.8436366932559825,0.0004540514
647.0,855.41,39482.0,2.5328e-05,27.943,30.11,65.099,51.234,88.553,1099.7,0.010986,86.919,0.55966,liquid,H2O,C7732185,water,647.0,220.64,17.9,0.0558659217877095,1.0,3.8769488759970994,0.00045337119999999995
647.0,862.75,39540.0,2.5291e-05,27.921,30.103,65.059,51.227,88.359,1103.3,0.010723,87.101,0.56071,liquid,H2O,C7732185,water,647.0,220.64,17.9,0.0558659217877095,1.0,3.9102157360406093,0.00045270889999999994
647.0,870.1,39598.0,2.5254e-05,27.899,30.096,65.02,51.221,88.169,1106.9,0.010465,87.282,0.56174,liquid,H2O,C7732185,water,647.0,220.64,17.9,0.0558659217877095,1.0,3.9435279187817263,0.00045204659999999994
647.0,877.45,39655.0,2.5218e-05,27.877,30.089,64.981,51.214,87.982,1110.5,0.01021,87.461,0.56278,liquid,H2O,C7732185,water,647.0,220.64,17.9,0.0558659217877095,1.0,3.976840101522843,0.0004514022
647.0,884.8,39711.0,2.5182e-05,27.855,30.083,64.942,51.208,87.798,1114.1,0.0099605,87.64,0.5638,liquid,H2O,C7732185,water,647.0,220.64,17.9,0.0558659217877095,1.0,4.01015228426396,0.0004507578
647.0,892.15,39768.0,2.5146e-05,27.833,30.076,64.904,51.202,87.617,1117.7,0.0097146,87.818,0.56482,liquid,H2O,C7732185,water,647.0,220.64,17.9,0.0558659217877095,1.0,4.043464467005077,0.00045011339999999995
647.0,899.5,39823.0,2.5111e-05,27.811,30.07,64.866,51.196,87.439,1121.2,0.0094727,87.995,0.56584,liquid,H2O,C7732185,water,647.0,220.64,17.9,0.0558659217877095,1.0,4.0767766497461935,0.0004494869
647.0,906.84,39878.0,2.5076e-05,27.79,30.064,64.828,51.19,87.264,1124.7,0.0092347,88.17,0.56685,liquid,H2O,C7732185,water,647.0,220.64,17.9,0.0558659217877095,1.0,4.110043509789703,0.00044886039999999996
647.0,914.19,39933.0,2.5042e-05,27.769,30.058,64.791,51.185,87.092,1128.2,0.0090003,88.345,0.56786,liquid,H2O,C7732185,water,647.0,220.64,17.9,0.0558659217877095,1.0,4.14335569253082,0.00044825179999999994
647.0,921.54,39987.0,2.5008e-05,27.748,30.053,64.753,51.179,86.923,1131.6,0.0087697,88.519,0.56886,liquid,H2O,C7732185,water,647.0,220.64,17.9,0.0558659217877095,1.0,4.176667875271936,0.00044764319999999997
647.0,928.89,40041.0,2.4974e-05,27.727,30.047,64.717,51.174,86.756,1135.0,0.0085426,88.692,0.56986,liquid,H2O,C7732185,water,647.0,220.64,17.9,0.0558659217877095,1.0,4.209980058013053,0.00044703459999999995
647.0,936.24,40095.0,2.4941e-05,27.707,30.042,64.68,51.169,86.592,1138.4,0.008319,88.864,0.57086,liquid,H2O,C7732185,water,647.0,220.64,17.9,0.0558659217877095,1.0,4.24329224075417,0.00044644389999999996
647.0,943.59,40148.0,2.4908e-05,27.686,30.037,64.644,51.164,86.43,1141.8,0.0080988,89.035,0.57185,liquid,H2O,C7732185,water,647.0,220.64,17.9,0.0558659217877095,1.0,4.276604423495287,0.0004458532
647.0,950.93,40200.0,2.4875e-05,27.666,30.032,64.607,51.159,86.271,1145.2,0.0078819,89.206,0.57283,liquid,H2O,C7732185,water,647.0,220.64,17.9,0.0558659217877095,1.0,4.309871283538796,0.0004452625
647.0,958.28,40253.0,2.4843e-05,27.646,30.027,64.572,51.155,86.114,1148.5,0.0076682,89.375,0.57381,liquid,H2O,C7732185,water,647.0,220.64,17.9,0.0558659217877095,1.0,4.343183466279913,0.0004446897
647.0,965.63,40305.0,2.4811e-05,27.626,30.022,64.536,51.15,85.96,1151.9,0.0074577,89.544,0.57479,liquid,H2O,C7732185,water,647.0,220.64,17.9,0.0558659217877095,1.0,4.37649564902103,0.00044411689999999997
647.0,972.98,40356.0,2.4779e-05,27.606,30.017,64.501,51.145,85.808,1155.2,0.0072502,89.712,0.57576,liquid,H2O,C7732185,water,647.0,220.64,17.9,0.0558659217877095,1.0,4.409807831762147,0.0004435441
647.0,980.33,40407.0,2.4748e-05,27.587,30.013,64.466,51.141,85.658,1158.4,0.0070458,89.878,0.57673,liquid,H2O,C7732185,water,647.0,220.64,17.9,0.0558659217877095,1.0,4.443120014503264,0.0004429892
647.0,987.68,40458.0,2.4717e-05,27.567,30.008,64.431,51.137,85.511,1161.7,0.0068443,90.045,0.5777,liquid,H2O,C7732185,water,647.0,220.64,17.9,0.0558659217877095,1.0,4.47643219724438,0.0004424343
647.0,995.02,40508.0,2.4686e-05,27.548,30.004,64.396,51.133,85.365,1164.9,0.0066457,90.21,0.57866,liquid,H2O,C7732185,water,647.0,220.64,17.9,0.0558659217877095,1.0,4.50969905728789,0.0004418794
647.0,1002.4,40558.0,2.4656e-05,27.529,30.0,64.362,51.129,85.222,1168.2,0.0064499,90.375,0.57961,liquid,H2O,C7732185,water,647.0,220.64,17.9,0.0558659217877095,1.0,4.543147208121828,0.0004413424
647.0,1009.7,40608.0,2.4626e-05,27.509,29.996,64.328,51.125,85.08,1171.4,0.0062569,90.538,0.58057,liquid,H2O,C7732185,water,647.0,220.64,17.9,0.0558659217877095,1.0,4.576232777374909,0.0004408054
647.0,1017.1,40657.0,2.4596e-05,27.491,29.992,64.294,51.121,84.941,1174.5,0.0060665,90.702,0.58151,liquid,H2O,C7732185,water,647.0,220.64,17.9,0.0558659217877095,1.0,4.609771573604061,0.0004402684
647.0,1024.4,40706.0,2.4566e-05,27.472,29.988,64.26,51.117,84.803,1177.7,0.0058788,90.864,0.58246,liquid,H2O,C7732185,water,647.0,220.64,17.9,0.0558659217877095,1.0,4.642857142857143,0.0004397314
647.0,1031.8,40755.0,2.4537e-05,27.453,29.985,64.227,51.114,84.668,1180.8,0.0056936,91.025,0.5834,liquid,H2O,C7732185,water,647.0,220.64,17.9,0.0558659217877095,1.0,4.676395939086294,0.00043921229999999996
647.0,1039.1,40803.0,2.4508e-05,27.435,29.981,64.193,51.11,84.534,1184.0,0.005511,91.186,0.58434,liquid,H2O,C7732185,water,647.0,220.64,17.9,0.0558659217877095,1.0,4.709481508339376,0.00043869319999999994
647.0,1046.5,40851.0,2.4479e-05,27.416,29.978,64.16,51.107,84.402,1187.1,0.0053308,91.347,0.58527,liquid,H2O,C7732185,water,647.0,220.64,17.9,0.0558659217877095,1.0,4.743020304568528,0.0004381741
647.0,1053.8,40899.0,2.4451e-05,27.398,29.975,64.128,51.104,84.272,1190.2,0.005153,91.506,0.5862,liquid,H2O,C7732185,water,647.0,220.64,17.9,0.0558659217877095,1.0,4.77610587382161,0.0004376729
647.0,1061.2,40946.0,2.4422e-05,27.38,29.972,64.095,51.101,84.143,1193.2,0.0049775,91.665,0.58713,liquid,H2O,C7732185,water,647.0,220.64,17.9,0.0558659217877095,1.0,4.809644670050762,0.00043715379999999997
647.0,1068.5,40993.0,2.4394e-05,27.362,29.969,64.063,51.097,84.017,1196.3,0.0048044,91.823,0.58806,liquid,H2O,C7732185,water,647.0,220.64,17.9,0.0558659217877095,1.0,4.842730239303844,0.0004366526
647.0,1075.9,41040.0,2.4367e-05,27.344,29.966,64.03,51.094,83.891,1199.3,0.0046335,91.98,0.58898,liquid,H2O,C7732185,water,647.0,220.64,17.9,0.0558659217877095,1.0,4.876269035532996,0.00043616929999999997
647.0,1083.2,41086.0,2.4339e-05,27.326,29.963,63.998,51.091,83.768,1202.4,0.0044649,92.137,0.58989,liquid,H2O,C7732185,water,647.0,220.64,17.9,0.0558659217877095,1.0,4.909354604786078,0.00043566809999999993
647.0,1090.6,41132.0,2.4312e-05,27.309,29.96,63.967,51.089,83.646,1205.4,0.0042984,92.293,0.59081,liquid,H2O,C7732185,water,647.0,220.64,17.9,0.0558659217877095,1.0,4.942893401015228,0.0004351848
647.0,1097.9,41178.0,2.4285e-05,27.291,29.958,63.935,51.086,83.526,1208.4,0.004134,92.449,0.59172,liquid,H2O,C7732185,water,647.0,220.64,17.9,0.0558659217877095,1.0,4.9759789702683115,0.00043470149999999996
647.0,1105.2,41224.0,2.4258e-05,27.274,29.955,63.904,51.083,83.407,1211.3,0.0039717,92.604,0.59263,liquid,H2O,C7732185,water,647.0,220.64,17.9,0.0558659217877095,1.0,5.009064539521392,0.00043421819999999996
647.0,1112.6,41269.0,2.4231e-05,27.257,29.953,63.872,51.081,83.289,1214.3,0.0038115,92.758,0.59353,liquid,H2O,C7732185,water,647.0,220.64,17.9,0.0558659217877095,1.0,5.0426033357505435,0.00043373489999999995
647.0,1119.9,41314.0,2.4205e-05,27.24,29.95,63.841,51.078,83.174,1217.2,0.0036532,92.911,0.59443,liquid,H2O,C7732185,water,647.0,220.64,17.9,0.0558659217877095,1.0,5.075688905003626,0.00043326949999999997
647.0,1127.3,41359.0,2.4179e-05,27.223,29.948,63.81,51.075,83.059,1220.2,0.003497,93.065,0.59533,liquid,H2O,C7732185,water,647.0,220.64,17.9,0.0558659217877095,1.0,5.109227701232777,0.0004328041
647.0,1134.6,41403.0,2.4153e-05,27.206,29.946,63.78,51.073,82.946,1223.1,0.0033426,93.217,0.59623,liquid,H2O,C7732185,water,647.0,220.64,17.9,0.0558659217877095,1.0,5.142313270485859,0.00043233869999999996
647.0,1142.0,41447.0,2.4127e-05,27.189,29.944,63.749,51.071,82.834,1226.0,0.0031901,93.369,0.59712,liquid,H2O,C7732185,water,647.0,220.64,17.9,0.0558659217877095,1.0,5.175852066715011,0.0004318733
647.0,1149.3,41491.0,2.4102e-05,27.172,29.942,63.719,51.069,82.724,1228.8,0.0030395,93.52,0.59801,liquid,H2O,C7732185,water,647.0,220.64,17.9,0.0558659217877095,1.0,5.208937635968093,0.0004314258
647.0,1156.7,41535.0,2.4076e-05,27.156,29.94,63.689,51.066,82.615,1231.7,0.0028906,93.671,0.5989,liquid,H2O,C7732185,water,647.0,220.64,17.9,0.0558659217877095,1.0,5.242476432197245,0.0004309604
647.0,1164.0,41578.0,2.4051e-05,27.139,29.939,63.659,51.064,82.507,1234.6,0.0027436,93.821,0.59978,liquid,H2O,C7732185,water,647.0,220.64,17.9,0.0558659217877095,1.0,5.275562001450327,0.0004305129
647.0,1171.4,41621.0,2.4026e-05,27.123,29.937,63.629,51.062,82.4,1237.4,0.0025983,93.97,0.60066,liquid,H2O,C7732185,water,647.0,220.64,17.9,0.0558659217877095,1.0,5.309100797679479,0.00043006539999999996
647.0,1178.7,41664.0,2.4002e-05,27.106,29.936,63.599,51.06,82.295,1240.2,0.0024547,94.119,0.60154,liquid,H2O,C7732185,water,647.0,220.64,17.9,0.0558659217877095,1.0,5.342186366932561,0.0004296358
647.0,1186.1,41707.0,2.3977e-05,27.09,29.934,63.57,51.058,82.191,1243.0,0.0023128,94.268,0.60241,liquid,H2O,C7732185,water,647.0,220.64,17.9,0.0558659217877095,1.0,5.375725163161711,0.0004291883
647.0,1193.4,41749.0,2.3953e-05,27.074,29.933,63.541,51.056,82.088,1245.8,0.0021725,94.416,0.60329,liquid,H2O,C7732185,water,647.0,220.64,17.9,0.0558659217877095,1.0,5.4088107324147945,0.00042875869999999997
647.0,1200.8,41791.0,2.3929e-05,27.058,29.932,63.512,51.055,81.987,1248.6,0.0020339,94.563,0.60416,liquid,H2O,C7732185,water,647.0,220.64,17.9,0.0558659217877095,1.0,5.442349528643945,0.0004283291
647.0,1208.1,41833.0,2.3905e-05,27.042,29.93,63.483,51.053,81.886,1251.4,0.0018969,94.71,0.60502,liquid,H2O,C7732185,water,647.0,220.64,17.9,0.0558659217877095,1.0,5.4754350978970265,0.00042789949999999993
647.0,1215.5,41875.0,2.3881e-05,27.027,29.929,63.454,51.051,81.787,1254.2,0.0017614,94.856,0.60589,liquid,H2O,C7732185,water,647.0,220.64,17.9,0.0558659217877095,1.0,5.5089738941261785,0.00042746989999999996
647.0,1222.8,41916.0,2.3857e-05,27.011,29.928,63.425,51.049,81.688,1256.9,0.0016274,95.002,0.60675,liquid,H2O,C7732185,water,647.0,220.64,17.9,0.0558659217877095,1.0,5.54205946337926,0.00042704029999999994
647.0,1230.2,41957.0,2.3834e-05,26.995,29.927,63.396,51.048,81.591,1259.6,0.001495,95.147,0.60761,liquid,H2O,C7732185,water,647.0,220.64,17.9,0.0558659217877095,1.0,5.575598259608412,0.00042662859999999996
647.0,1237.5,41998.0,2.3811e-05,26.98,29.926,63.368,51.046,81.495,1262.4,0.001364,95.292,0.60847,liquid,H2O,C7732185,water,647.0,220.64,17.9,0.0558659217877095,1.0,5.608683828861494,0.00042621689999999997
647.0,1244.9,42039.0,2.3787e-05,26.964,29.926,63.34,51.045,81.4,1265.1,0.0012345,95.436,0.60932,liquid,H2O,C7732185,water,647.0,220.64,17.9,0.0558659217877095,1.0,5.642222625090646,0.0004257873
647.0,1252.2,42080.0,2.3765e-05,26.949,29.925,63.312,51.043,81.306,1267.8,0.0011064,95.58,0.61017,liquid,H2O,C7732185,water,647.0,220.64,17.9,0.0558659217877095,1.0,5.675308194343728,0.0004253935
647.0,1259.6,42120.0,2.3742e-05,26.934,29.924,63.284,51.042,81.212,1270.4,0.00097975,95.723,0.61102,liquid,H2O,C7732185,water,647.0,220.64,17.9,0.0558659217877095,1.0,5.708846990572879,0.0004249818
647.0,1266.9,42160.0,2.3719e-05,26.919,29.924,63.256,51.041,81.12,1273.1,0.00085446,95.866,0.61187,liquid,H2O,C7732185,water,647.0,220.64,17.9,0.0558659217877095,1.0,5.741932559825962,0.0004245701
647.0,1274.3,42200.0,2.3697e-05,26.904,29.923,63.228,51.039,81.029,1275.8,0.00073052,96.009,0.61271,liquid,H2O,C7732185,water,647.0,220.64,17.9,0.0558659217877095,1.0,5.775471356055113,0.00042417629999999995
647.0,1281.6,42240.0,2.3675e-05,26.889,29.923,63.201,51.038,80.939,1278.4,0.00060791,96.151,0.61355,liquid,H2O,C7732185,water,647.0,220.64,17.9,0.0558659217877095,1.0,5.808556925308194,0.00042378249999999994
647.0,1289.0,42279.0,2.3652e-05,26.874,29.923,63.173,51.037,80.85,1281.1,0.00048662,96.292,0.61439,liquid,H2O,C7732185,water,647.0,220.64,17.9,0.0558659217877095,1.0,5.842095721537346,0.00042337079999999995
647.0,1296.3,42318.0,2.363e-05,26.859,29.922,63.146,51.036,80.761,1283.7,0.00036662,96.433,0.61523,liquid,H2O,C7732185,water,647.0,220.64,17.9,0.0558659217877095,1.0,5.875181290790428,0.00042297699999999995
647.0,1303.7,42357.0,2.3609e-05,26.844,29.922,63.119,51.035,80.674,1286.3,0.00024788,96.574,0.61607,liquid,H2O,C7732185,water,647.0,220.64,17.9,0.0558659217877095,1.0,5.90872008701958,0.00042260109999999997
647.0,1311.0,42396.0,2.3587e-05,26.83,29.922,63.092,51.033,80.588,1288.9,0.0001304,96.714,0.6169,liquid,H2O,C7732185,water,647.0,220.64,17.9,0.0558659217877095,1.0,5.9418056562726616,0.00042220729999999996
647.0,1318.4,42435.0,2.3566e-05,26.815,29.922,63.065,51.032,80.502,1291.5,1.4138e-05,96.853,0.61773,liquid,H2O,C7732185,water,647.0,220.64,17.9,0.0558659217877095,1.0,5.975344452501814,0.0004218314
647.0,1325.7,42473.0,2.3544e-05,26.801,29.922,63.039,51.031,80.417,1294.1,-0.00010091,96.992,0.61856,liquid,H2O,C7732185,water,647.0,220.64,17.9,0.0558659217877095,1.0,6.008430021754895,0.00042143759999999997
647.0,1333.0,42512.0,2.3523e-05,26.786,29.922,63.012,51.03,80.333,1296.6,-0.00021478,97.131,0.61938,liquid,H2O,C7732185,water,647.0,220.64,17.9,0.0558659217877095,1.0,6.041515591007977,0.0004210617
647.0,1340.4,42550.0,2.3502e-05,26.772,29.922,62.986,51.03,80.25,1299.2,-0.00032747,97.27,0.62021,liquid,H2O,C7732185,water,647.0,220.64,17.9,0.0558659217877095,1.0,6.075054387237129,0.00042068579999999996
647.0,1347.7,42588.0,2.3481e-05,26.758,29.923,62.959,51.029,80.168,1301.7,-0.00043902,97.407,0.62103,liquid,H2O,C7732185,water,647.0,220.64,17.9,0.0558659217877095,1.0,6.108139956490211,0.0004203099
647.0,1355.1,42625.0,2.346e-05,26.744,29.923,62.933,51.028,80.086,1304.3,-0.00054943,97.545,0.62185,liquid,H2O,C7732185,water,647.0,220.64,17.9,0.0558659217877095,1.0,6.141678752719362,0.00041993399999999995
647.0,1362.4,42663.0,2.344e-05,26.73,29.923,62.907,51.027,80.006,1306.8,-0.00065873,97.682,0.62267,liquid,H2O,C7732185,water,647.0,220.64,17.9,0.0558659217877095,1.0,6.174764321972445,0.00041957599999999996
647.0,1369.8,42700.0,2.3419e-05,26.716,29.924,62.881,51.026,79.926,1309.3,-0.00076694,97.819,0.62348,liquid,H2O,C7732185,water,647.0,220.64,17.9,0.0558659217877095,1.0,6.208303118201596,0.0004192001
647.0,1377.1,42737.0,2.3399e-05,26.702,29.924,62.855,51.026,79.847,1311.8,-0.00087406,97.955,0.6243,liquid,H2O,C7732185,water,647.0,220.64,17.9,0.0558659217877095,1.0,6.241388687454677,0.0004188421
647.0,1384.5,42774.0,2.3378e-05,26.688,29.925,62.829,51.025,79.768,1314.3,-0.00098012,98.091,0.62511,liquid,H2O,C7732185,water,647.0,220.64,17.9,0.0558659217877095,1.0,6.274927483683829,0.00041846619999999995
647.0,1391.8,42811.0,2.3358e-05,26.674,29.925,62.804,51.024,79.691,1316.8,-0.0010851,98.226,0.62592,liquid,H2O,C7732185,water,647.0,220.64,17.9,0.0558659217877095,1.0,6.308013052936911,0.00041810819999999995
647.0,1399.2,42848.0,2.3338e-05,26.66,29.926,62.778,51.024,79.614,1319.3,-0.0011891,98.361,0.62672,liquid,H2O,C7732185,water,647.0,220.64,17.9,0.0558659217877095,1.0,6.341551849166063,0.00041775019999999995
647.0,1406.5,42884.0,2.3318e-05,26.647,29.927,62.753,51.023,79.538,1321.7,-0.0012921,98.496,0.62753,liquid,H2O,C7732185,water,647.0,220.64,17.9,0.0558659217877095,1.0,6.3746374184191446,0.00041739219999999995
647.0,1413.9,42921.0,2.3299e-05,26.633,29.927,62.728,51.022,79.462,1324.2,-0.0013941,98.63,0.62833,liquid,H2O,C7732185,water,647.0,220.64,17.9,0.0558659217877095,1.0,6.408176214648297,0.00041705209999999993
647.0,1421.2,42957.0,2.3279e-05,26.62,29.928,62.703,51.022,79.387,1326.6,-0.001495,98.764,0.62913,liquid,H2O,C7732185,water,647.0,220.64,17.9,0.0558659217877095,1.0,6.441261783901378,0.00041669409999999993