Temperature (K),Pressure (bar),Density (mol/m3),Volume (m3/mol),Internal Energy (kJ/mol),Enthalpy (kJ/mol),Entropy (J/mol*K),Cv (J/mol*K),Cp (J/mol*K),Sound Spd. (m/s),Joule-Thomson (K/bar),Viscosity (uPa*s),Therm. Cond. (W/m*K),Phase,substance,substance_id,substance_name,Tc,Pc,rhoc,Vmc,Tr,Pr,Vmr
256.46,977.37,26439.0,3.7824e-05,-0.4856,3.2112,85.789,16.173,32.419,765.18,-0.046957,87.36,0.078997,supercritical,Ar,C7440371,argon,150.86,48.9805,13.41,0.07457121551081282,1.6999999999999997,19.954267514623165,0.0005072198400000001
256.46,979.0,26453.0,3.7804e-05,-0.48733,3.2136,85.775,16.177,32.413,765.77,-0.047026,87.455,0.079075,supercritical,Ar,C7440371,argon,150.86,48.9805,13.41,0.07457121551081282,1.6999999999999997,19.987546064250058,0.00050695164