Temperature (K),Pressure (bar),Density (mol/m3),Volume (m3/mol),Internal Energy (kJ/mol),Enthalpy (kJ/mol),Entropy (J/mol*K),Cv (J/mol*K),Cp (J/mol*K),Sound Spd. (m/s),Joule-Thomson (K/bar),Viscosity (uPa*s),Therm. Cond. (W/m*K),Phase,substance,substance_id,substance_name,Tc,Pc,rhoc,Vmc,Tr,Pr,Vmr
647.0,2148.7,45918.0,2.1778e-05,25.542,30.221,60.63,51.06,74.282,1532.7,-0.0082491,110.56,0.70089,liquid,H2O,C7732185,water,647.0,220.64,17.9,0.0558659217877095,1.0,9.738488034807832,0.0003898262
647.0,2156.1,45944.0,2.1766e-05,25.533,30.226,60.612,51.061,74.246,1534.5,-0.0082953,110.66,0.70155,liquid,H2O,C7732185,water,647.0,220.64,17.9,0.0558659217877095,1.0,9.772026831036984,0.0003896114
647.0,2163.4,45969.0,2.1754e-05,25.524,30.231,60.594,51.062,74.21,1536.3,-0.0083413,110.77,0.70222,liquid,H2O,C7732185,water,647.0,220.64,17.9,0.0558659217877095,1.0,9.805112400290067,0.00038939659999999996
647.0,2170.8,45994.0,2.1742e-05,25.515,30.235,60.576,51.063,74.174,1538.1,-0.008387,110.88,0.70288,liquid,H2O,C7732185,water,647.0,220.64,17.9,0.0558659217877095,1.0,9.838651196519217,0.00038918179999999995
647.0,2178.1,46019.0,2.173e-05,25.507,30.24,60.559,51.064,74.139,1539.9,-0.0084323,110.99,0.70354,liquid,H2O,C7732185,water,647.0,220.64,17.9,0.0558659217877095,1.0,9.8717367657723,0.000388967
647.0,2185.5,46044.0,2.1718e-05,25.498,30.244,60.541,51.065,74.104,1541.7,-0.0084774,111.09,0.7042,liquid,H2O,C7732185,water,647.0,220.64,17.9,0.0558659217877095,1.0,9.905275562001451,0.0003887522
647.0,2192.8,46069.0,2.1707e-05,25.489,30.249,60.524,51.066,74.068,1543.5,-0.0085222,111.2,0.70486,liquid,H2O,C7732185,water,647.0,220.64,17.9,0.0558659217877095,1.0,9.938361131254533,0.0003885553
647.0,2200.2,46093.0,2.1695e-05,25.48,30.254,60.506,51.067,74.034,1545.3,-0.0085668,111.31,0.70552,liquid,H2O,C7732185,water,647.0,220.64,17.9,0.0558659217877095,1.0,9.971899927483683,0.0003883405
647.0,2207.5,46118.0,2.1683e-05,25.472,30.258,60.489,51.068,73.999,1547.0,-0.008611,111.41,0.70618,liquid,H2O,C7732185,water,647.0,220.64,17.9,0.0558659217877095,1.0,10.004985496736767,0.0003881257
647.0,2214.8,46143.0,2.1672e-05,25.463,30.263,60.472,51.069,73.965,1548.8,-0.008655,111.52,0.70684,liquid,H2O,C7732185,water,647.0,220.64,17.9,0.0558659217877095,1.0,10.038071065989849,0.00038792879999999995
647.0,2222.2,46167.0,2.166e-05,25.454,30.268,60.454,51.07,73.93,1550.6,-0.0086986,111.62,0.70749,liquid,H2O,C7732185,water,647.0,220.64,17.9,0.0558659217877095,1.0,10.071609862218999,0.00038771399999999994
647.0,2229.5,46192.0,2.1649e-05,25.446,30.272,60.437,51.071,73.896,1552.3,-0.0087421,111.73,0.70815,liquid,H2O,C7732185,water,647.0,220.64,17.9,0.0558659217877095,1.0,10.104695431472082,0.00038751709999999996
647.0,2236.9,46216.0,2.1637e-05,25.437,30.277,60.42,51.072,73.862,1554.1,-0.0087852,111.83,0.7088,liquid,H2O,C7732185,water,647.0,220.64,17.9,0.0558659217877095,1.0,10.138234227701235,0.00038730229999999995
647.0,2244.2,46241.0,2.1626e-05,25.429,30.282,60.403,51.073,73.829,1555.8,-0.0088281,111.94,0.70946,liquid,H2O,C7732185,water,647.0,220.64,17.9,0.0558659217877095,1.0,10.171319796954315,0.0003871054
647.0,2251.6,46265.0,2.1615e-05,25.42,30.287,60.385,51.074,73.795,1557.6,-0.0088707,112.05,0.71011,liquid,H2O,C7732185,water,647.0,220.64,17.9,0.0558659217877095,1.0,10.204858593183467,0.00038690849999999994
647.0,2258.9,46289.0,2.1603e-05,25.412,30.292,60.368,51.075,73.762,1559.3,-0.008913,112.15,0.71076,liquid,H2O,C7732185,water,647.0,220.64,17.9,0.0558659217877095,1.0,10.23794416243655,0.0003866937
647.0,2266.3,46314.0,2.1592e-05,25.403,30.296,60.351,51.076,73.729,1561.0,-0.0089551,112.26,0.71141,liquid,H2O,C7732185,water,647.0,220.64,17.9,0.0558659217877095,1.0,10.2714829586657,0.00038649679999999996
647.0,2273.6,46338.0,2.1581e-05,25.395,30.301,60.334,51.077,73.696,1562.8,-0.008997,112.36,0.71206,liquid,H2O,C7732185,water,647.0,220.64,17.9,0.0558659217877095,1.0,10.304568527918782,0.0003862999
647.0,2281.0,46362.0,2.157e-05,25.386,30.306,60.317,51.078,73.663,1564.5,-0.0090385,112.46,0.71271,liquid,H2O,C7732185,water,647.0,220.64,17.9,0.0558659217877095,1.0,10.338107324147934,0.00038610299999999995
647.0,2288.3,46386.0,2.1558e-05,25.378,30.311,60.3,51.079,73.631,1566.2,-0.0090799,112.57,0.71336,liquid,H2O,C7732185,water,647.0,220.64,17.9,0.0558659217877095,1.0,10.371192893401016,0.0003858882
647.0,2295.7,46410.0,2.1547e-05,25.369,30.316,60.284,51.08,73.598,1568.0,-0.0091209,112.67,0.714,liquid,H2O,C7732185,water,647.0,220.64,17.9,0.0558659217877095,1.0,10.404731689630166,0.00038569129999999996
647.0,2303.0,46434.0,2.1536e-05,25.361,30.321,60.267,51.081,73.566,1569.7,-0.0091618,112.78,0.71465,liquid,H2O,C7732185,water,647.0,220.64,17.9,0.0558659217877095,1.0,10.43781725888325,0.0003854943999999999
647.0,2310.4,46457.0,2.1525e-05,25.353,30.326,60.25,51.082,73.534,1571.4,-0.0092023,112.88,0.71529,liquid,H2O,C7732185,water,647.0,220.64,17.9,0.0558659217877095,1.0,10.471356055112402,0.0003852975
647.0,2317.7,46481.0,2.1514e-05,25.344,30.331,60.233,51.083,73.502,1573.1,-0.0092427,112.98,0.71594,liquid,H2O,C7732185,water,647.0,220.64,17.9,0.0558659217877095,1.0,10.504441624365482,0.00038510059999999997
647.0,2325.1,46505.0,2.1503e-05,25.336,30.336,60.217,51.084,73.47,1574.8,-0.0092827,113.09,0.71658,liquid,H2O,C7732185,water,647.0,220.64,17.9,0.0558659217877095,1.0,10.537980420594634,0.0003849037
647.0,2332.4,46528.0,2.1492e-05,25.328,30.341,60.2,51.085,73.439,1576.5,-0.0093226,113.19,0.71723,liquid,H2O,C7732185,water,647.0,220.64,17.9,0.0558659217877095,1.0,10.571065989847718,0.00038470679999999996
647.0,2339.8,46552.0,2.1481e-05,25.32,30.346,60.183,51.086,73.407,1578.2,-0.0093622,113.29,0.71787,liquid,H2O,C7732185,water,647.0,220.64,17.9,0.0558659217877095,1.0,10.60460478607687,0.0003845099
647.0,2347.1,46575.0,2.1471e-05,25.312,30.351,60.167,51.087,73.376,1579.9,-0.0094016,113.4,0.71851,liquid,H2O,C7732185,water,647.0,220.64,17.9,0.0558659217877095,1.0,10.63769035532995,0.0003843309
647.0,2354.5,46599.0,2.146e-05,25.303,30.356,60.15,51.088,73.345,1581.6,-0.0094407,113.5,0.71915,liquid,H2O,C7732185,water,647.0,220.64,17.9,0.0558659217877095,1.0,10.671229151559102,0.000384134
647.0,2361.8,46622.0,2.1449e-05,25.295,30.361,60.134,51.089,73.314,1583.3,-0.0094796,113.6,0.71979,liquid,H2O,C7732185,water,647.0,220.64,17.9,0.0558659217877095,1.0,10.704314720812183,0.0003839371
647.0,2369.2,46646.0,2.1438e-05,25.287,30.366,60.117,51.09,73.284,1585.0,-0.0095183,113.7,0.72043,liquid,H2O,C7732185,water,647.0,220.64,17.9,0.0558659217877095,1.0,10.737853517041334,0.0003837402
647.0,2376.5,46669.0,2.1428e-05,25.279,30.371,60.101,51.091,73.253,1586.6,-0.0095568,113.81,0.72106,liquid,H2O,C7732185,water,647.0,220.64,17.9,0.0558659217877095,1.0,10.770939086294417,0.00038356119999999994
647.0,2383.9,46692.0,2.1417e-05,25.271,30.377,60.084,51.092,73.223,1588.3,-0.009595,113.91,0.7217,liquid,H2O,C7732185,water,647.0,220.64,17.9,0.0558659217877095,1.0,10.80447788252357,0.00038336429999999996
647.0,2391.2,46715.0,2.1406e-05,25.263,30.382,60.068,51.093,73.192,1590.0,-0.009633,114.01,0.72234,liquid,H2O,C7732185,water,647.0,220.64,17.9,0.0558659217877095,1.0,10.83756345177665,0.0003831674
647.0,2398.6,46738.0,2.1396e-05,25.255,30.387,60.052,51.094,73.162,1591.6,-0.0096708,114.11,0.72297,liquid,H2O,C7732185,water,647.0,220.64,17.9,0.0558659217877095,1.0,10.871102248005801,0.0003829884
647.0,2405.9,46761.0,2.1385e-05,25.247,30.392,60.036,51.095,73.132,1593.3,-0.0097083,114.21,0.72361,liquid,H2O,C7732185,water,647.0,220.64,17.9,0.0558659217877095,1.0,10.904187817258885,0.00038279149999999996
647.0,2413.3,46784.0,2.1375e-05,25.239,30.397,60.019,51.096,73.103,1595.0,-0.0097457,114.32,0.72424,liquid,H2O,C7732185,water,647.0,220.64,17.9,0.0558659217877095,1.0,10.937726613488037,0.0003826125
647.0,2420.6,46807.0,2.1364e-05,25.231,30.403,60.003,51.097,73.073,1596.6,-0.0097828,114.42,0.72487,liquid,H2O,C7732185,water,647.0,220.64,17.9,0.0558659217877095,1.0,10.970812182741117,0.0003824156
647.0,2428.0,46830.0,2.1354e-05,25.223,30.408,59.987,51.098,73.044,1598.3,-0.0098197,114.52,0.7255,liquid,H2O,C7732185,water,647.0,220.64,17.9,0.0558659217877095,1.0,11.004350978970269,0.0003822366
647.0,2435.3,46853.0,2.1343e-05,25.215,30.413,59.971,51.1,73.014,1599.9,-0.0098564,114.62,0.72613,liquid,H2O,C7732185,water,647.0,220.64,17.9,0.0558659217877095,1.0,11.037436548223353,0.00038203969999999995
647.0,2442.6,46876.0,2.1333e-05,25.208,30.418,59.955,51.101,72.985,1601.6,-0.0098929,114.72,0.72677,liquid,H2O,C7732185,water,647.0,220.64,17.9,0.0558659217877095,1.0,11.070522117476433,0.0003818607
647.0,2450.0,46898.0,2.1323e-05,25.2,30.424,59.939,51.102,72.956,1603.2,-0.0099292,114.82,0.72739,liquid,H2O,C7732185,water,647.0,220.64,17.9,0.0558659217877095,1.0,11.104060913705585,0.00038168169999999995
647.0,2457.3,46921.0,2.1312e-05,25.192,30.429,59.923,51.103,72.927,1604.9,-0.0099652,114.92,0.72802,liquid,H2O,C7732185,water,647.0,220.64,17.9,0.0558659217877095,1.0,11.137146482958666,0.00038148479999999997
647.0,2464.7,46944.0,2.1302e-05,25.184,30.434,59.907,51.104,72.899,1606.5,-0.010001,115.02,0.72865,liquid,H2O,C7732185,water,647.0,220.64,17.9,0.0558659217877095,1.0,11.170685279187817,0.00038130579999999997
647.0,2472.0,46966.0,2.1292e-05,25.176,30.44,59.891,51.105,72.87,1608.1,-0.010037,115.12,0.72928,liquid,H2O,C7732185,water,647.0,220.64,17.9,0.0558659217877095,1.0,11.2037708484409,0.00038112679999999997
647.0,2479.4,46988.0,2.1282e-05,25.169,30.445,59.875,51.106,72.842,1609.8,-0.010072,115.22,0.7299,liquid,H2O,C7732185,water,647.0,220.64,17.9,0.0558659217877095,1.0,11.237309644670052,0.00038094779999999997
647.0,2486.7,47011.0,2.1272e-05,25.161,30.451,59.859,51.107,72.813,1611.4,-0.010107,115.32,0.73053,liquid,H2O,C7732185,water,647.0,220.64,17.9,0.0558659217877095,1.0,11.270395213923132,0.00038076879999999997
647.0,2494.1,47033.0,2.1262e-05,25.153,30.456,59.844,51.108,72.785,1613.0,-0.010143,115.42,0.73115,liquid,H2O,C7732185,water,647.0,220.64,17.9,0.0558659217877095,1.0,11.303934010152284,0.00038058979999999997
647.0,2501.4,47056.0,2.1251e-05,25.146,30.461,59.828,51.109,72.757,1614.6,-0.010177,115.52,0.73178,liquid,H2O,C7732185,water,647.0,220.64,17.9,0.0558659217877095,1.0,11.337019579405368,0.0003803929
647.0,2508.8,47078.0,2.1241e-05,25.138,30.467,59.812,51.111,72.729,1616.2,-0.010212,115.62,0.7324,liquid,H2O,C7732185,water,647.0,220.64,17.9,0.0558659217877095,1.0,11.37055837563452,0.00038021389999999994
647.0,2516.1,47100.0,2.1231e-05,25.13,30.472,59.797,51.112,72.702,1617.8,-0.010247,115.72,0.73302,liquid,H2O,C7732185,water,647.0,220.64,17.9,0.0558659217877095,1.0,11.4036439448876,0.0003800349
647.0,2523.5,47122.0,2.1221e-05,25.123,30.478,59.781,51.113,72.674,1619.5,-0.010281,115.82,0.73365,liquid,H2O,C7732185,water,647.0,220.64,17.9,0.0558659217877095,1.0,11.437182741116752,0.00037985589999999994
647.0,2530.8,47144.0,2.1212e-05,25.115,30.483,59.765,51.114,72.647,1621.1,-0.010315,115.92,0.73427,liquid,H2O,C7732185,water,647.0,220.64,17.9,0.0558659217877095,1.0,11.470268310369836,0.0003796948
647.0,2538.2,47166.0,2.1202e-05,25.107,30.489,59.75,51.115,72.619,1622.7,-0.010349,116.02,0.73489,liquid,H2O,C7732185,water,647.0,220.64,17.9,0.0558659217877095,1.0,11.503807106598984,0.0003795158
647.0,2545.5,47188.0,2.1192e-05,25.1,30.494,59.734,51.116,72.592,1624.3,-0.010383,116.12,0.73551,liquid,H2O,C7732185,water,647.0,220.64,17.9,0.0558659217877095,1.0,11.536892675852068,0.0003793368
647.0,2552.9,47210.0,2.1182e-05,25.092,30.5,59.719,51.117,72.565,1625.9,-0.010416,116.21,0.73612,liquid,H2O,C7732185,water,647.0,220.64,17.9,0.0558659217877095,1.0,11.57043147208122,0.0003791578
647.0,2560.2,47232.0,2.1172e-05,25.085,30.505,59.703,51.118,72.538,1627.4,-0.010449,116.31,0.73674,liquid,H2O,C7732185,water,647.0,220.64,17.9,0.0558659217877095,1.0,11.6035170413343,0.0003789788
647.0,2567.6,47254.0,2.1162e-05,25.077,30.511,59.688,51.12,72.512,1629.0,-0.010483,116.41,0.73736,liquid,H2O,C7732185,water,647.0,220.64,17.9,0.0558659217877095,1.0,11.637055837563452,0.00037879980000000003
647.0,2574.9,47276.0,2.1153e-05,25.07,30.517,59.672,51.121,72.485,1630.6,-0.010515,116.51,0.73797,liquid,H2O,C7732185,water,647.0,220.64,17.9,0.0558659217877095,1.0,11.670141406816535,0.00037863869999999996
647.0,2582.3,47297.0,2.1143e-05,25.063,30.522,59.657,51.122,72.458,1632.2,-0.010548,116.61,0.73859,liquid,H2O,C7732185,water,647.0,220.64,17.9,0.0558659217877095,1.0,11.703680203045687,0.0003784597
647.0,2589.6,47319.0,2.1133e-05,25.055,30.528,59.642,51.123,72.432,1633.8,-0.010581,116.71,0.73921,liquid,H2O,C7732185,water,647.0,220.64,17.9,0.0558659217877095,1.0,11.736765772298767,0.00037828069999999996
647.0,2597.0,47341.0,2.1123e-05,25.048,30.534,59.627,51.124,72.406,1635.4,-0.010613,116.8,0.73982,liquid,H2O,C7732185,water,647.0,220.64,17.9,0.0558659217877095,1.0,11.77030456852792,0.0003781017
647.0,2604.3,47362.0,2.1114e-05,25.04,30.539,59.611,51.125,72.38,1636.9,-0.010646,116.9,0.74043,liquid,H2O,C7732185,water,647.0,220.64,17.9,0.0558659217877095,1.0,11.803390137781003,0.0003779406
647.0,2611.7,47384.0,2.1104e-05,25.033,30.545,59.596,51.126,72.354,1638.5,-0.010678,117.0,0.74104,liquid,H2O,C7732185,water,647.0,220.64,17.9,0.0558659217877095,1.0,11.836928934010151,0.0003777616
647.0,2619.0,47405.0,2.1095e-05,25.026,30.551,59.581,51.128,72.328,1640.1,-0.01071,117.09,0.74166,liquid,H2O,C7732185,water,647.0,220.64,17.9,0.0558659217877095,1.0,11.870014503263235,0.00037760049999999997
647.0,2626.4,47427.0,2.1085e-05,25.019,30.556,59.566,51.129,72.302,1641.6,-0.010741,117.19,0.74227,liquid,H2O,C7732185,water,647.0,220.64,17.9,0.0558659217877095,1.0,11.903553299492387,0.00037742149999999997
647.0,2633.7,47448.0,2.1076e-05,25.011,30.562,59.551,51.13,72.276,1643.2,-0.010773,117.29,0.74288,liquid,H2O,C7732185,water,647.0,220.64,17.9,0.0558659217877095,1.0,11.936638868745467,0.00037726039999999995
647.0,2641.1,47469.0,2.1066e-05,25.004,30.568,59.536,51.131,72.251,1644.7,-0.010804,117.39,0.74349,liquid,H2O,C7732185,water,647.0,220.64,17.9,0.0558659217877095,1.0,11.970177664974619,0.0003770814
647.0,2648.4,47491.0,2.1057e-05,24.997,30.573,59.521,51.132,72.225,1646.3,-0.010836,117.48,0.7441,liquid,H2O,C7732185,water,647.0,220.64,17.9,0.0558659217877095,1.0,12.003263234227703,0.00037692029999999993
647.0,2655.7,47512.0,2.1047e-05,24.99,30.579,59.506,51.133,72.2,1647.8,-0.010867,117.58,0.74471,liquid,H2O,C7732185,water,647.0,220.64,17.9,0.0558659217877095,1.0,12.036348803480783,0.0003767413
647.0,2663.1,47533.0,2.1038e-05,24.982,30.585,59.491,51.135,72.175,1649.4,-0.010898,117.68,0.74531,liquid,H2O,C7732185,water,647.0,220.64,17.9,0.0558659217877095,1.0,12.069887599709935,0.0003765802
647.0,2670.4,47554.0,2.1029e-05,24.975,30.591,59.476,51.136,72.15,1650.9,-0.010928,117.77,0.74592,liquid,H2O,C7732185,water,647.0,220.64,17.9,0.0558659217877095,1.0,12.102973168963018,0.0003764191
647.0,2677.8,47575.0,2.1019e-05,24.968,30.597,59.461,51.137,72.125,1652.5,-0.010959,117.87,0.74653,liquid,H2O,C7732185,water,647.0,220.64,17.9,0.0558659217877095,1.0,12.13651196519217,0.0003762401
647.0,2685.1,47596.0,2.101e-05,24.961,30.602,59.446,51.138,72.1,1654.0,-0.010989,117.96,0.74713,liquid,H2O,C7732185,water,647.0,220.64,17.9,0.0558659217877095,1.0,12.16959753444525,0.000376079
647.0,2692.5,47617.0,2.1001e-05,24.954,30.608,59.431,51.139,72.076,1655.6,-0.011019,118.06,0.74774,liquid,H2O,C7732185,water,647.0,220.64,17.9,0.0558659217877095,1.0,12.203136330674402,0.0003759179
647.0,2699.8,47638.0,2.0992e-05,24.947,30.614,59.416,51.14,72.051,1657.1,-0.01105,118.16,0.74834,liquid,H2O,C7732185,water,647.0,220.64,17.9,0.0558659217877095,1.0,12.236221899927486,0.0003757568
647.0,2707.2,47659.0,2.0982e-05,24.94,30.62,59.401,51.142,72.026,1658.6,-0.01108,118.25,0.74894,liquid,H2O,C7732185,water,647.0,220.64,17.9,0.0558659217877095,1.0,12.269760696156634,0.0003755778
647.0,2714.5,47680.0,2.0973e-05,24.933,30.626,59.387,51.143,72.002,1660.1,-0.011109,118.35,0.74955,liquid,H2O,C7732185,water,647.0,220.64,17.9,0.0558659217877095,1.0,12.302846265409718,0.00037541669999999997
647.0,2721.9,47701.0,2.0964e-05,24.925,30.632,59.372,51.144,71.978,1661.7,-0.011139,118.44,0.75015,liquid,H2O,C7732185,water,647.0,220.64,17.9,0.0558659217877095,1.0,12.33638506163887,0.0003752556
647.0,2729.2,47722.0,2.0955e-05,24.918,30.638,59.357,51.145,71.954,1663.2,-0.011168,118.54,0.75075,liquid,H2O,C7732185,water,647.0,220.64,17.9,0.0558659217877095,1.0,12.36947063089195,0.0003750944999999999
647.0,2736.6,47742.0,2.0946e-05,24.911,30.643,59.343,51.146,71.93,1664.7,-0.011198,118.63,0.75135,liquid,H2O,C7732185,water,647.0,220.64,17.9,0.0558659217877095,1.0,12.403009427121102,0.00037493339999999996
647.0,2743.9,47763.0,2.0937e-05,24.904,30.649,59.328,51.148,71.906,1666.2,-0.011227,118.73,0.75195,liquid,H2O,C7732185,water,647.0,220.64,17.9,0.0558659217877095,1.0,12.436094996374186,0.0003747723
647.0,2751.3,47784.0,2.0928e-05,24.898,30.655,59.313,51.149,71.882,1667.7,-0.011256,118.82,0.75255,liquid,H2O,C7732185,water,647.0,220.64,17.9,0.0558659217877095,1.0,12.469633792603338,0.00037461119999999997
647.0,2758.6,47804.0,2.0919e-05,24.891,30.661,59.299,51.15,71.858,1669.2,-0.011285,118.92,0.75315,liquid,H2O,C7732185,water,647.0,220.64,17.9,0.0558659217877095,1.0,12.502719361856418,0.0003744501
647.0,2766.0,47825.0,2.091e-05,24.884,30.667,59.284,51.151,71.835,1670.7,-0.011313,119.01,0.75374,liquid,H2O,C7732185,water,647.0,220.64,17.9,0.0558659217877095,1.0,12.53625815808557,0.000374289
647.0,2773.3,47845.0,2.0901e-05,24.877,30.673,59.27,51.152,71.811,1672.2,-0.011342,119.11,0.75434,liquid,H2O,C7732185,water,647.0,220.64,17.9,0.0558659217877095,1.0,12.569343727338653,0.00037412789999999996
647.0,2780.7,47866.0,2.0892e-05,24.87,30.679,59.255,51.153,71.788,1673.7,-0.01137,119.2,0.75494,liquid,H2O,C7732185,water,647.0,220.64,17.9,0.0558659217877095,1.0,12.602882523567803,0.00037396679999999994
647.0,2788.0,47886.0,2.0883e-05,24.863,30.685,59.241,51.155,71.765,1675.2,-0.011399,119.29,0.75553,liquid,H2O,C7732185,water,647.0,220.64,17.9,0.0558659217877095,1.0,12.635968092820885,0.00037380569999999997
647.0,2795.4,47907.0,2.0874e-05,24.856,30.691,59.226,51.156,71.741,1676.7,-0.011427,119.39,0.75613,liquid,H2O,C7732185,water,647.0,220.64,17.9,0.0558659217877095,1.0,12.669506889050037,0.0003736446
647.0,2802.7,47927.0,2.0865e-05,24.849,30.697,59.212,51.157,71.718,1678.2,-0.011455,119.48,0.75672,liquid,H2O,C7732185,water,647.0,220.64,17.9,0.0558659217877095,1.0,12.702592458303117,0.0003734835
647.0,2810.1,47947.0,2.0856e-05,24.843,30.703,59.198,51.158,71.695,1679.7,-0.011483,119.58,0.75732,liquid,H2O,C7732185,water,647.0,220.64,17.9,0.0558659217877095,1.0,12.73613125453227,0.0003733224
647.0,2817.4,47967.0,2.0847e-05,24.836,30.709,59.183,51.159,71.672,1681.2,-0.01151,119.67,0.75791,liquid,H2O,C7732185,water,647.0,220.64,17.9,0.0558659217877095,1.0,12.769216823785353,0.00037316129999999994
647.0,2824.8,47988.0,2.0839e-05,24.829,30.715,59.169,51.161,71.65,1682.7,-0.011538,119.76,0.7585,liquid,H2O,C7732185,water,647.0,220.64,17.9,0.0558659217877095,1.0,12.802755620014505,0.0003730181
647.0,2832.1,48008.0,2.083e-05,24.822,30.721,59.155,51.162,71.627,1684.2,-0.011565,119.86,0.75909,liquid,H2O,C7732185,water,647.0,220.64,17.9,0.0558659217877095,1.0,12.835841189267585,0.00037285699999999993
647.0,2839.5,48028.0,2.0821e-05,24.815,30.728,59.141,51.163,71.604,1685.6,-0.011593,119.95,0.75968,liquid,H2O,C7732185,water,647.0,220.64,17.9,0.0558659217877095,1.0,12.869379985496737,0.00037269589999999996
647.0,2846.8,48048.0,2.0813e-05,24.809,30.734,59.126,51.164,71.582,1687.1,-0.01162,120.04,0.76028,liquid,H2O,C7732185,water,647.0,220.64,17.9,0.0558659217877095,1.0,12.90246555474982,0.0003725527
647.0,2854.2,48068.0,2.0804e-05,24.802,30.74,59.112,51.165,71.56,1688.6,-0.011647,120.14,0.76087,liquid,H2O,C7732185,water,647.0,220.64,17.9,0.0558659217877095,1.0,12.93600435097897,0.00037239159999999995