Temperature (K),Pressure (bar),Density (mol/m3),Volume (m3/mol),Internal Energy (kJ/mol),Enthalpy (kJ/mol),Entropy (J/mol*K),Cv (J/mol*K),Cp (J/mol*K),Sound Spd. (m/s),Joule-Thomson (K/bar),Viscosity (uPa*s),Therm. Cond. (W/m*K),Phase,substance,substance_id,substance_name,Tc,Pc,rhoc,Vmc,Tr,Pr,Vmr
647.0,1428.6,42993.0,2.326e-05,26.606,29.929,62.678,51.021,79.313,1329.1,-0.0015951,98.898,0.62993,liquid,H2O,C7732185,water,647.0,220.64,17.9,0.0558659217877095,1.0,6.4748005801305295,0.00041635399999999996
647.0,1435.9,43029.0,2.324e-05,26.593,29.93,62.653,51.021,79.24,1331.5,-0.0016941,99.031,0.63073,liquid,H2O,C7732185,water,647.0,220.64,17.9,0.0558659217877095,1.0,6.507886149383612,0.000415996
647.0,1443.3,43064.0,2.3221e-05,26.58,29.931,62.628,51.02,79.167,1333.9,-0.0017922,99.163,0.63152,liquid,H2O,C7732185,water,647.0,220.64,17.9,0.0558659217877095,1.0,6.541424945612763,0.0004156559
647.0,1450.6,43100.0,2.3202e-05,26.566,29.932,62.603,51.02,79.095,1336.3,-0.0018894,99.296,0.63232,liquid,H2O,C7732185,water,647.0,220.64,17.9,0.0558659217877095,1.0,6.574510514865845,0.0004153158
647.0,1458.0,43135.0,2.3183e-05,26.553,29.933,62.578,51.02,79.024,1338.7,-0.0019857,99.428,0.63311,liquid,H2O,C7732185,water,647.0,220.64,17.9,0.0558659217877095,1.0,6.608049311094997,0.0004149757
647.0,1465.3,43170.0,2.3164e-05,26.54,29.934,62.554,51.019,78.953,1341.1,-0.0020811,99.56,0.6339,liquid,H2O,C7732185,water,647.0,220.64,17.9,0.0558659217877095,1.0,6.641134880348078,0.0004146356
647.0,1472.7,43205.0,2.3145e-05,26.527,29.936,62.53,51.019,78.883,1343.5,-0.0021756,99.691,0.63469,liquid,H2O,C7732185,water,647.0,220.64,17.9,0.0558659217877095,1.0,6.67467367657723,0.00041429549999999997
647.0,1480.0,43240.0,2.3127e-05,26.514,29.937,62.505,51.019,78.813,1345.9,-0.0022692,99.822,0.63547,liquid,H2O,C7732185,water,647.0,220.64,17.9,0.0558659217877095,1.0,6.707759245830312,0.0004139733
647.0,1487.4,43275.0,2.3108e-05,26.501,29.938,62.481,51.018,78.745,1348.2,-0.0023619,99.952,0.63626,liquid,H2O,C7732185,water,647.0,220.64,17.9,0.0558659217877095,1.0,6.741298042059464,0.00041363319999999996
647.0,1494.7,43309.0,2.309e-05,26.488,29.94,62.457,51.018,78.676,1350.6,-0.0024538,100.08,0.63704,liquid,H2O,C7732185,water,647.0,220.64,17.9,0.0558659217877095,1.0,6.774383611312546,0.000413311
647.0,1502.1,43344.0,2.3071e-05,26.476,29.941,62.433,51.018,78.609,1352.9,-0.0025449,100.21,0.63782,liquid,H2O,C7732185,water,647.0,220.64,17.9,0.0558659217877095,1.0,6.807922407541697,0.00041297089999999995
647.0,1509.4,43378.0,2.3053e-05,26.463,29.943,62.409,51.018,78.541,1355.3,-0.0026351,100.34,0.6386,liquid,H2O,C7732185,water,647.0,220.64,17.9,0.0558659217877095,1.0,6.84100797679478,0.0004126487
647.0,1516.8,43412.0,2.3035e-05,26.45,29.944,62.385,51.017,78.475,1357.6,-0.0027246,100.47,0.63937,liquid,H2O,C7732185,water,647.0,220.64,17.9,0.0558659217877095,1.0,6.874546773023931,0.0004123265
647.0,1524.1,43446.0,2.3017e-05,26.438,29.946,62.362,51.017,78.409,1359.9,-0.0028132,100.6,0.64015,liquid,H2O,C7732185,water,647.0,220.64,17.9,0.0558659217877095,1.0,6.9076323422770125,0.0004120043
647.0,1531.5,43480.0,2.2999e-05,26.425,29.947,62.338,51.017,78.344,1362.2,-0.002901,100.73,0.64092,liquid,H2O,C7732185,water,647.0,220.64,17.9,0.0558659217877095,1.0,6.9411711385061645,0.0004116821
647.0,1538.8,43514.0,2.2981e-05,26.413,29.949,62.315,51.017,78.279,1364.5,-0.002988,100.86,0.64169,liquid,H2O,C7732185,water,647.0,220.64,17.9,0.0558659217877095,1.0,6.974256707759246,0.00041135989999999996
647.0,1546.1,43547.0,2.2964e-05,26.4,29.951,62.291,51.017,78.214,1366.8,-0.0030743,100.98,0.64246,liquid,H2O,C7732185,water,647.0,220.64,17.9,0.0558659217877095,1.0,7.007342277012328,0.00041105559999999995
647.0,1553.5,43581.0,2.2946e-05,26.388,29.953,62.268,51.017,78.151,1369.1,-0.0031598,101.11,0.64323,liquid,H2O,C7732185,water,647.0,220.64,17.9,0.0558659217877095,1.0,7.04088107324148,0.00041073339999999996
647.0,1560.8,43614.0,2.2928e-05,26.376,29.955,62.245,51.017,78.087,1371.4,-0.0032446,101.24,0.644,liquid,H2O,C7732185,water,647.0,220.64,17.9,0.0558659217877095,1.0,7.073966642494561,0.0004104112
647.0,1568.2,43647.0,2.2911e-05,26.364,29.956,62.222,51.017,78.025,1373.7,-0.0033286,101.37,0.64476,liquid,H2O,C7732185,water,647.0,220.64,17.9,0.0558659217877095,1.0,7.107505438723713,0.0004101069
647.0,1575.5,43680.0,2.2894e-05,26.351,29.958,62.199,51.017,77.962,1375.9,-0.0034119,101.49,0.64553,liquid,H2O,C7732185,water,647.0,220.64,17.9,0.0558659217877095,1.0,7.140591007976795,0.0004098026
647.0,1582.9,43713.0,2.2877e-05,26.339,29.96,62.176,51.017,77.901,1378.2,-0.0034945,101.62,0.64629,liquid,H2O,C7732185,water,647.0,220.64,17.9,0.0558659217877095,1.0,7.174129804205947,0.0004094983
647.0,1590.2,43746.0,2.2859e-05,26.327,29.962,62.153,51.017,77.84,1380.5,-0.0035763,101.75,0.64705,liquid,H2O,C7732185,water,647.0,220.64,17.9,0.0558659217877095,1.0,7.207215373459029,0.00040917609999999995
647.0,1597.6,43778.0,2.2842e-05,26.315,29.964,62.13,51.017,77.779,1382.7,-0.0036575,101.87,0.64781,liquid,H2O,C7732185,water,647.0,220.64,17.9,0.0558659217877095,1.0,7.24075416968818,0.00040887179999999994
647.0,1604.9,43811.0,2.2825e-05,26.303,29.967,62.107,51.017,77.719,1384.9,-0.003738,102.0,0.64857,liquid,H2O,C7732185,water,647.0,220.64,17.9,0.0558659217877095,1.0,7.273839738941263,0.00040856749999999993
647.0,1612.3,43843.0,2.2809e-05,26.291,29.969,62.085,51.017,77.659,1387.2,-0.0038177,102.12,0.64932,liquid,H2O,C7732185,water,647.0,220.64,17.9,0.0558659217877095,1.0,7.307378535170414,0.0004082811
647.0,1619.6,43875.0,2.2792e-05,26.279,29.971,62.062,51.017,77.6,1389.4,-0.0038968,102.25,0.65008,liquid,H2O,C7732185,water,647.0,220.64,17.9,0.0558659217877095,1.0,7.3404641044234955,0.0004079768
647.0,1627.0,43907.0,2.2775e-05,26.268,29.973,62.04,51.017,77.541,1391.6,-0.0039753,102.37,0.65083,liquid,H2O,C7732185,water,647.0,220.64,17.9,0.0558659217877095,1.0,7.3740029006526475,0.0004076725
647.0,1634.3,43939.0,2.2759e-05,26.256,29.975,62.018,51.018,77.483,1393.8,-0.0040531,102.49,0.65158,liquid,H2O,C7732185,water,647.0,220.64,17.9,0.0558659217877095,1.0,7.407088469905729,0.00040738609999999996
647.0,1641.7,43971.0,2.2742e-05,26.244,29.978,61.995,51.018,77.425,1396.0,-0.0041302,102.62,0.65233,liquid,H2O,C7732185,water,647.0,220.64,17.9,0.0558659217877095,1.0,7.440627266134881,0.0004070818
647.0,1649.0,44003.0,2.2726e-05,26.233,29.98,61.973,51.018,77.367,1398.2,-0.0042067,102.74,0.65308,liquid,H2O,C7732185,water,647.0,220.64,17.9,0.0558659217877095,1.0,7.473712835387963,0.00040679539999999997
647.0,1656.4,44034.0,2.271e-05,26.221,29.983,61.951,51.018,77.31,1400.4,-0.0042826,102.87,0.65382,liquid,H2O,C7732185,water,647.0,220.64,17.9,0.0558659217877095,1.0,7.507251631617114,0.000406509
647.0,1663.7,44066.0,2.2693e-05,26.209,29.985,61.929,51.018,77.254,1402.5,-0.0043578,102.99,0.65457,liquid,H2O,C7732185,water,647.0,220.64,17.9,0.0558659217877095,1.0,7.540337200870196,0.0004062047
647.0,1671.1,44097.0,2.2677e-05,26.198,29.987,61.907,51.019,77.198,1404.7,-0.0044324,103.11,0.65531,liquid,H2O,C7732185,water,647.0,220.64,17.9,0.0558659217877095,1.0,7.573875997099347,0.00040591829999999995
647.0,1678.4,44128.0,2.2661e-05,26.187,29.99,61.885,51.019,77.142,1406.9,-0.0045064,103.23,0.65605,liquid,H2O,C7732185,water,647.0,220.64,17.9,0.0558659217877095,1.0,7.60696156635243,0.0004056319
647.0,1685.8,44159.0,2.2645e-05,26.175,29.993,61.864,51.019,77.087,1409.0,-0.0045798,103.36,0.65679,liquid,H2O,C7732185,water,647.0,220.64,17.9,0.0558659217877095,1.0,7.640500362581581,0.0004053455
647.0,1693.1,44190.0,2.2629e-05,26.164,29.995,61.842,51.019,77.032,1411.2,-0.0046526,103.48,0.65753,liquid,H2O,C7732185,water,647.0,220.64,17.9,0.0558659217877095,1.0,7.673585931834663,0.00040505909999999997
647.0,1700.5,44221.0,2.2614e-05,26.152,29.998,61.82,51.02,76.978,1413.3,-0.0047249,103.6,0.65827,liquid,H2O,C7732185,water,647.0,220.64,17.9,0.0558659217877095,1.0,7.707124728063815,0.00040479059999999997
647.0,1707.8,44252.0,2.2598e-05,26.141,30.001,61.799,51.02,76.924,1415.4,-0.0047965,103.72,0.659,liquid,H2O,C7732185,water,647.0,220.64,17.9,0.0558659217877095,1.0,7.740210297316897,0.0004045042
647.0,1715.2,44283.0,2.2582e-05,26.13,30.003,61.777,51.02,76.87,1417.6,-0.0048676,103.84,0.65974,liquid,H2O,C7732185,water,647.0,220.64,17.9,0.0558659217877095,1.0,7.773749093546049,0.0004042178
647.0,1722.5,44313.0,2.2567e-05,26.119,30.006,61.756,51.021,76.817,1419.7,-0.0049381,103.96,0.66047,liquid,H2O,C7732185,water,647.0,220.64,17.9,0.0558659217877095,1.0,7.8068346627991305,0.00040394929999999996
647.0,1729.9,44344.0,2.2551e-05,26.108,30.009,61.735,51.021,76.764,1421.8,-0.0050081,104.08,0.6612,liquid,H2O,C7732185,water,647.0,220.64,17.9,0.0558659217877095,1.0,7.8403734590282825,0.0004036629
647.0,1737.2,44374.0,2.2536e-05,26.097,30.012,61.714,51.022,76.712,1423.9,-0.0050775,104.2,0.66193,liquid,H2O,C7732185,water,647.0,220.64,17.9,0.0558659217877095,1.0,7.873459028281364,0.0004033944
647.0,1744.6,44404.0,2.252e-05,26.086,30.015,61.692,51.022,76.66,1426.0,-0.0051463,104.32,0.66266,liquid,H2O,C7732185,water,647.0,220.64,17.9,0.0558659217877095,1.0,7.906997824510515,0.000403108
647.0,1751.9,44434.0,2.2505e-05,26.075,30.017,61.671,51.022,76.608,1428.1,-0.0052146,104.44,0.66339,liquid,H2O,C7732185,water,647.0,220.64,17.9,0.0558659217877095,1.0,7.940083393763597,0.00040283949999999995
647.0,1759.3,44464.0,2.249e-05,26.064,30.02,61.65,51.023,76.557,1430.2,-0.0052824,104.56,0.66412,liquid,H2O,C7732185,water,647.0,220.64,17.9,0.0558659217877095,1.0,7.973622189992748,0.00040257099999999995
647.0,1766.6,44494.0,2.2475e-05,26.053,30.023,61.629,51.023,76.506,1432.3,-0.0053497,104.68,0.66484,liquid,H2O,C7732185,water,647.0,220.64,17.9,0.0558659217877095,1.0,8.006707759245831,0.0004023025
647.0,1773.9,44524.0,2.246e-05,26.042,30.026,61.609,51.024,76.456,1434.3,-0.0054164,104.8,0.66557,liquid,H2O,C7732185,water,647.0,220.64,17.9,0.0558659217877095,1.0,8.039793328498913,0.00040203399999999995
647.0,1781.3,44554.0,2.2445e-05,26.031,30.03,61.588,51.024,76.405,1436.4,-0.0054826,104.92,0.66629,liquid,H2O,C7732185,water,647.0,220.64,17.9,0.0558659217877095,1.0,8.073332124728065,0.00040176549999999995
647.0,1788.6,44583.0,2.243e-05,26.021,30.033,61.567,51.025,76.356,1438.5,-0.0055483,105.04,0.66701,liquid,H2O,C7732185,water,647.0,220.64,17.9,0.0558659217877095,1.0,8.106417693981145,0.000401497
647.0,1796.0,44613.0,2.2415e-05,26.01,30.036,61.546,51.025,76.306,1440.5,-0.0056136,105.15,0.66773,liquid,H2O,C7732185,water,647.0,220.64,17.9,0.0558659217877095,1.0,8.139956490210297,0.0004012285
647.0,1803.3,44642.0,2.24e-05,25.999,30.039,61.526,51.026,76.257,1442.6,-0.0056783,105.27,0.66845,liquid,H2O,C7732185,water,647.0,220.64,17.9,0.0558659217877095,1.0,8.173042059463379,0.00040095999999999996
647.0,1810.7,44671.0,2.2386e-05,25.989,30.042,61.505,51.026,76.208,1444.6,-0.0057425,105.39,0.66917,liquid,H2O,C7732185,water,647.0,220.64,17.9,0.0558659217877095,1.0,8.20658085569253,0.00040070939999999993
647.0,1818.0,44700.0,2.2371e-05,25.978,30.045,61.485,51.027,76.16,1446.7,-0.0058062,105.51,0.66988,liquid,H2O,C7732185,water,647.0,220.64,17.9,0.0558659217877095,1.0,8.239666424945613,0.0004004409
647.0,1825.4,44729.0,2.2357e-05,25.968,30.049,61.465,51.027,76.112,1448.7,-0.0058695,105.62,0.6706,liquid,H2O,C7732185,water,647.0,220.64,17.9,0.0558659217877095,1.0,8.273205221174765,0.00040019029999999997
647.0,1832.7,44758.0,2.2342e-05,25.957,30.052,61.444,51.028,76.064,1450.7,-0.0059323,105.74,0.67131,liquid,H2O,C7732185,water,647.0,220.64,17.9,0.0558659217877095,1.0,8.306290790427846,0.00039992179999999997
647.0,1840.1,44787.0,2.2328e-05,25.947,30.055,61.424,51.028,76.017,1452.7,-0.0059946,105.86,0.67202,liquid,H2O,C7732185,water,647.0,220.64,17.9,0.0558659217877095,1.0,8.339829586656998,0.0003996712
647.0,1847.4,44816.0,2.2314e-05,25.936,30.059,61.404,51.029,75.97,1454.7,-0.0060565,105.97,0.67273,liquid,H2O,C7732185,water,647.0,220.64,17.9,0.0558659217877095,1.0,8.37291515591008,0.0003994206
647.0,1854.8,44844.0,2.2299e-05,25.926,30.062,61.384,51.029,75.923,1456.8,-0.0061179,106.09,0.67344,liquid,H2O,C7732185,water,647.0,220.64,17.9,0.0558659217877095,1.0,8.406453952139232,0.0003991521
647.0,1862.1,44873.0,2.2285e-05,25.916,30.065,61.364,51.03,75.876,1458.8,-0.0061788,106.21,0.67415,liquid,H2O,C7732185,water,647.0,220.64,17.9,0.0558659217877095,1.0,8.439539521392314,0.0003989015
647.0,1869.5,44901.0,2.2271e-05,25.905,30.069,61.344,51.031,75.83,1460.8,-0.0062393,106.32,0.67486,liquid,H2O,C7732185,water,647.0,220.64,17.9,0.0558659217877095,1.0,8.473078317621466,0.0003986509
647.0,1876.8,44930.0,2.2257e-05,25.895,30.072,61.324,51.031,75.785,1462.7,-0.0062994,106.44,0.67556,liquid,H2O,C7732185,water,647.0,220.64,17.9,0.0558659217877095,1.0,8.506163886874548,0.0003984003
647.0,1884.2,44958.0,2.2243e-05,25.885,30.076,61.304,51.032,75.739,1464.7,-0.006359,106.55,0.67627,liquid,H2O,C7732185,water,647.0,220.64,17.9,0.0558659217877095,1.0,8.5397026831037,0.0003981497
647.0,1891.5,44986.0,2.2229e-05,25.875,30.079,61.284,51.033,75.694,1466.7,-0.0064182,106.67,0.67697,liquid,H2O,C7732185,water,647.0,220.64,17.9,0.0558659217877095,1.0,8.57278825235678,0.0003978991
647.0,1898.9,45014.0,2.2215e-05,25.865,30.083,61.265,51.033,75.649,1468.7,-0.0064769,106.78,0.67767,liquid,H2O,C7732185,water,647.0,220.64,17.9,0.0558659217877095,1.0,8.606327048585932,0.00039764849999999997
647.0,1906.2,45042.0,2.2201e-05,25.855,30.087,61.245,51.034,75.604,1470.7,-0.0065352,106.9,0.67837,liquid,H2O,C7732185,water,647.0,220.64,17.9,0.0558659217877095,1.0,8.639412617839014,0.00039739789999999994
647.0,1913.6,45070.0,2.2188e-05,25.845,30.09,61.226,51.034,75.56,1472.6,-0.0065931,107.01,0.67907,liquid,H2O,C7732185,water,647.0,220.64,17.9,0.0558659217877095,1.0,8.672951414068166,0.0003971652
647.0,1920.9,45098.0,2.2174e-05,25.835,30.094,61.206,51.035,75.516,1474.6,-0.0066506,107.13,0.67977,liquid,H2O,C7732185,water,647.0,220.64,17.9,0.0558659217877095,1.0,8.706036983321248,0.0003969146
647.0,1928.3,45126.0,2.216e-05,25.825,30.098,61.187,51.036,75.472,1476.5,-0.0067077,107.24,0.68047,liquid,H2O,C7732185,water,647.0,220.64,17.9,0.0558659217877095,1.0,8.7395757795504,0.000396664
647.0,1935.6,45153.0,2.2147e-05,25.815,30.101,61.167,51.037,75.429,1478.5,-0.0067644,107.35,0.68117,liquid,H2O,C7732185,water,647.0,220.64,17.9,0.0558659217877095,1.0,8.772661348803481,0.0003964313
647.0,1943.0,45181.0,2.2133e-05,25.805,30.105,61.148,51.037,75.386,1480.4,-0.0068207,107.47,0.68186,liquid,H2O,C7732185,water,647.0,220.64,17.9,0.0558659217877095,1.0,8.806200145032633,0.00039618069999999996
647.0,1950.3,45208.0,2.212e-05,25.795,30.109,61.129,51.038,75.343,1482.4,-0.0068766,107.58,0.68256,liquid,H2O,C7732185,water,647.0,220.64,17.9,0.0558659217877095,1.0,8.839285714285715,0.000395948
647.0,1957.7,45236.0,2.2106e-05,25.785,30.113,61.109,51.039,75.3,1484.3,-0.006932,107.69,0.68325,liquid,H2O,C7732185,water,647.0,220.64,17.9,0.0558659217877095,1.0,8.872824510514867,0.0003956974
647.0,1965.0,45263.0,2.2093e-05,25.775,30.117,61.09,51.039,75.258,1486.2,-0.0069871,107.81,0.68394,liquid,H2O,C7732185,water,647.0,220.64,17.9,0.0558659217877095,1.0,8.90591007976795,0.00039546469999999996
647.0,1972.4,45290.0,2.208e-05,25.766,30.121,61.071,51.04,75.216,1488.1,-0.0070418,107.92,0.68463,liquid,H2O,C7732185,water,647.0,220.64,17.9,0.0558659217877095,1.0,8.939448875997101,0.00039523199999999997
647.0,1979.7,45317.0,2.2067e-05,25.756,30.124,61.052,51.041,75.174,1490.0,-0.0070962,108.03,0.68532,liquid,H2O,C7732185,water,647.0,220.64,17.9,0.0558659217877095,1.0,8.972534445250181,0.0003949993
647.0,1987.1,45344.0,2.2054e-05,25.746,30.128,61.033,51.042,75.133,1492.0,-0.0071501,108.14,0.68601,liquid,H2O,C7732185,water,647.0,220.64,17.9,0.0558659217877095,1.0,9.006073241479333,0.00039476659999999994
647.0,1994.4,45371.0,2.204e-05,25.737,30.132,61.014,51.042,75.091,1493.9,-0.0072037,108.25,0.6867,liquid,H2O,C7732185,water,647.0,220.64,17.9,0.0558659217877095,1.0,9.039158810732415,0.000394516
647.0,2001.7,45398.0,2.2027e-05,25.727,30.136,60.995,51.043,75.051,1495.8,-0.0072569,108.37,0.68738,liquid,H2O,C7732185,water,647.0,220.64,17.9,0.0558659217877095,1.0,9.072244379985497,0.0003942833
647.0,2009.1,45425.0,2.2014e-05,25.717,30.14,60.977,51.044,75.01,1497.7,-0.0073098,108.48,0.68807,liquid,H2O,C7732185,water,647.0,220.64,17.9,0.0558659217877095,1.0,9.105783176214649,0.00039405059999999994
647.0,2016.4,45451.0,2.2001e-05,25.708,30.144,60.958,51.045,74.969,1499.5,-0.0073622,108.59,0.68875,liquid,H2O,C7732185,water,647.0,220.64,17.9,0.0558659217877095,1.0,9.13886874546773,0.0003938179
647.0,2023.8,45478.0,2.1989e-05,25.698,30.148,60.939,51.046,74.929,1501.4,-0.0074144,108.7,0.68944,liquid,H2O,C7732185,water,647.0,220.64,17.9,0.0558659217877095,1.0,9.172407541696883,0.00039360309999999994
647.0,2031.1,45505.0,2.1976e-05,25.689,30.153,60.921,51.046,74.889,1503.3,-0.0074661,108.81,0.69012,liquid,H2O,C7732185,water,647.0,220.64,17.9,0.0558659217877095,1.0,9.205493110949964,0.0003933704
647.0,2038.5,45531.0,2.1963e-05,25.68,30.157,60.902,51.047,74.849,1505.2,-0.0075176,108.92,0.6908,liquid,H2O,C7732185,water,647.0,220.64,17.9,0.0558659217877095,1.0,9.239031907179116,0.00039313769999999997
647.0,2045.8,45557.0,2.195e-05,25.67,30.161,60.883,51.048,74.81,1507.1,-0.0075686,109.03,0.69148,liquid,H2O,C7732185,water,647.0,220.64,17.9,0.0558659217877095,1.0,9.272117476432198,0.000392905
647.0,2053.2,45584.0,2.1938e-05,25.661,30.165,60.865,51.049,74.771,1508.9,-0.0076194,109.14,0.69216,liquid,H2O,C7732185,water,647.0,220.64,17.9,0.0558659217877095,1.0,9.305656272661349,0.00039269019999999997
647.0,2060.5,45610.0,2.1925e-05,25.651,30.169,60.847,51.05,74.732,1510.8,-0.0076698,109.25,0.69284,liquid,H2O,C7732185,water,647.0,220.64,17.9,0.0558659217877095,1.0,9.338741841914432,0.0003924575
647.0,2067.9,45636.0,2.1913e-05,25.642,30.173,60.828,51.051,74.693,1512.6,-0.0077198,109.36,0.69351,liquid,H2O,C7732185,water,647.0,220.64,17.9,0.0558659217877095,1.0,9.372280638143584,0.00039224269999999997
647.0,2075.2,45662.0,2.19e-05,25.633,30.178,60.81,51.051,74.654,1514.5,-0.0077695,109.47,0.69419,liquid,H2O,C7732185,water,647.0,220.64,17.9,0.0558659217877095,1.0,9.405366207396664,0.00039201
647.0,2082.6,45688.0,2.1888e-05,25.624,30.182,60.792,51.052,74.616,1516.3,-0.0078189,109.58,0.69486,liquid,H2O,C7732185,water,647.0,220.64,17.9,0.0558659217877095,1.0,9.438905003625816,0.00039179519999999997
647.0,2089.9,45714.0,2.1875e-05,25.614,30.186,60.773,51.053,74.578,1518.2,-0.007868,109.69,0.69554,liquid,H2O,C7732185,water,647.0,220.64,17.9,0.0558659217877095,1.0,9.471990572878898,0.0003915625
647.0,2097.3,45740.0,2.1863e-05,25.605,30.191,60.755,51.054,74.54,1520.0,-0.0079167,109.8,0.69621,liquid,H2O,C7732185,water,647.0,220.64,17.9,0.0558659217877095,1.0,9.50552936910805,0.0003913477
647.0,2104.6,45765.0,2.1851e-05,25.596,30.195,60.737,51.055,74.503,1521.9,-0.0079651,109.91,0.69688,liquid,H2O,C7732185,water,647.0,220.64,17.9,0.0558659217877095,1.0,9.538614938361132,0.0003911329
647.0,2112.0,45791.0,2.1838e-05,25.587,30.199,60.719,51.056,74.465,1523.7,-0.0080132,110.02,0.69755,liquid,H2O,C7732185,water,647.0,220.64,17.9,0.0558659217877095,1.0,9.572153734590284,0.0003909002
647.0,2119.3,45817.0,2.1826e-05,25.578,30.204,60.701,51.057,74.428,1525.5,-0.008061,110.13,0.69822,liquid,H2O,C7732185,water,647.0,220.64,17.9,0.0558659217877095,1.0,9.605239303843366,0.00039068539999999996
647.0,2126.7,45842.0,2.1814e-05,25.569,30.208,60.683,51.057,74.391,1527.3,-0.0081085,110.23,0.69889,liquid,H2O,C7732185,water,647.0,220.64,17.9,0.0558659217877095,1.0,9.638778100072516,0.0003904706
647.0,2134.0,45868.0,2.1802e-05,25.56,30.213,60.665,51.058,74.355,1529.1,-0.0081557,110.34,0.69956,liquid,H2O,C7732185,water,647.0,220.64,17.9,0.0558659217877095,1.0,9.6718636693256,0.00039025579999999994
647.0,2141.4,45893.0,2.179e-05,25.551,30.217,60.647,51.059,74.318,1530.9,-0.0082025,110.45,0.70022,liquid,H2O,C7732185,water,647.0,220.64,17.9,0.0558659217877095,1.0,9.705402465554752,0.000390041