Temperature (K),Pressure (bar),Density (mol/m3),Volume (m3/mol),Internal Energy (kJ/mol),Enthalpy (kJ/mol),Entropy (J/mol*K),Cv (J/mol*K),Cp (J/mol*K),Sound Spd. (m/s),Joule-Thomson (K/bar),Viscosity (uPa*s),Therm. Cond. (W/m*K),Phase,substance,substance_id,substance_name,Tc,Pc,rhoc,Vmc,Tr,Pr,Vmr
324.62,391.39,13519.0,7.3972e-05,4.8482,7.7434,153.1,22.791,40.52,464.27,0.039796,35.867,0.050647,supercritical,O2,C7782447,oxygen,154.58,50.43,13.6,0.07352941176470588,2.1,7.761054927622447,0.0010060192
324.62,392.75,13554.0,7.378e-05,4.8435,7.7412,153.07,22.794,40.528,464.92,0.039405,35.927,0.050734,supercritical,O2,C7782447,oxygen,154.58,50.43,13.6,0.07352941176470588,2.1,7.788023002181242,0.001003408
324.62,394.12,13589.0,7.359e-05,4.8387,7.7391,153.03,22.797,40.535,465.58,0.039017,35.987,0.050822,supercritical,O2,C7782447,oxygen,154.58,50.43,13.6,0.07352941176470588,2.1,7.81518937140591,0.001000824
324.62,395.49,13624.0,7.3401e-05,4.834,7.7369,152.99,22.8,40.542,466.23,0.03863,36.047,0.050909,supercritical,O2,C7782447,oxygen,154.58,50.43,13.6,0.07352941176470588,2.1,7.842355740630577,0.0009982536
324.62,396.85,13659.0,7.3214e-05,4.8293,7.7348,152.95,22.803,40.549,466.89,0.038246,36.107,0.050996,supercritical,O2,C7782447,oxygen,154.58,50.43,13.6,0.07352941176470588,2.1,7.869323815189372,0.0009957103999999998
324.62,398.21,13693.0,7.3028e-05,4.8246,7.7327,152.92,22.806,40.556,467.55,0.037863,36.167,0.051083,supercritical,O2,C7782447,oxygen,154.58,50.43,13.6,0.07352941176470588,2.1,7.8962918897481655,0.0009931808
324.62,399.58,13728.0,7.2844e-05,4.8199,7.7306,152.88,22.809,40.562,468.2,0.037483,36.227,0.05117,supercritical,O2,C7782447,oxygen,154.58,50.43,13.6,0.07352941176470588,2.1,7.9234582589728335,0.0009906784
324.62,400.94,13763.0,7.2661e-05,4.8152,7.7285,152.84,22.812,40.569,468.86,0.037105,36.287,0.051257,supercritical,O2,C7782447,oxygen,154.58,50.43,13.6,0.07352941176470588,2.1,7.950426333531628,0.0009881896
324.62,402.31,13797.0,7.248e-05,4.8106,7.7265,152.81,22.815,40.575,469.52,0.036728,36.346,0.051343,supercritical,O2,C7782447,oxygen,154.58,50.43,13.6,0.07352941176470588,2.1,7.977592702756296,0.000985728
324.62,403.68,13831.0,7.2299e-05,4.8059,7.7245,152.77,22.818,40.582,470.17,0.036353,36.406,0.05143,supercritical,O2,C7782447,oxygen,154.58,50.43,13.6,0.07352941176470588,2.1,8.004759071980963,0.0009832664
324.62,405.04,13866.0,7.2121e-05,4.8013,7.7225,152.73,22.821,40.588,470.83,0.035981,36.466,0.051517,supercritical,O2,C7782447,oxygen,154.58,50.43,13.6,0.07352941176470588,2.1,8.031727146539758,0.0009808456
324.62,406.4,13900.0,7.1943e-05,4.7967,7.7205,152.7,22.824,40.594,471.49,0.03561,36.526,0.051603,supercritical,O2,C7782447,oxygen,154.58,50.43,13.6,0.07352941176470588,2.1,8.058695221098551,0.0009784248
324.62,407.77,13934.0,7.1767e-05,4.7921,7.7185,152.66,22.827,40.6,472.15,0.035242,36.585,0.05169,supercritical,O2,C7782447,oxygen,154.58,50.43,13.6,0.07352941176470588,2.1,8.08586159032322,0.0009760312000000001
324.62,409.13,13968.0,7.1593e-05,4.7875,7.7166,152.62,22.83,40.605,472.81,0.034875,36.645,0.051776,supercritical,O2,C7782447,oxygen,154.58,50.43,13.6,0.07352941176470588,2.1,8.112829664882014,0.0009736648
324.62,410.5,14002.0,7.142e-05,4.7829,7.7147,152.59,22.833,40.611,473.47,0.03451,36.704,0.051863,supercritical,O2,C7782447,oxygen,154.58,50.43,13.6,0.07352941176470588,2.1,8.139996034106682,0.000971312
324.62,411.87,14036.0,7.1248e-05,4.7783,7.7128,152.55,22.836,40.617,474.12,0.034147,36.764,0.051949,supercritical,O2,C7782447,oxygen,154.58,50.43,13.6,0.07352941176470588,2.1,8.16716240333135,0.0009689728000000001
324.62,413.23,14069.0,7.1077e-05,4.7738,7.7109,152.52,22.839,40.622,474.78,0.033786,36.823,0.052035,supercritical,O2,C7782447,oxygen,154.58,50.43,13.6,0.07352941176470588,2.1,8.194130477890145,0.0009666471999999999
324.62,414.6,14103.0,7.0907e-05,4.7692,7.709,152.48,22.842,40.627,475.44,0.033427,36.883,0.052121,supercritical,O2,C7782447,oxygen,154.58,50.43,13.6,0.07352941176470588,2.1,8.221296847114813,0.0009643352
324.62,415.96,14136.0,7.0739e-05,4.7647,7.7072,152.45,22.845,40.633,476.1,0.033069,36.942,0.052208,supercritical,O2,C7782447,oxygen,154.58,50.43,13.6,0.07352941176470588,2.1,8.248264921673607,0.0009620504
324.62,417.32,14170.0,7.0572e-05,4.7602,7.7053,152.41,22.847,40.638,476.76,0.032714,37.002,0.052294,supercritical,O2,C7782447,oxygen,154.58,50.43,13.6,0.07352941176470588,2.1,8.2752329962324,0.0009597792
324.62,418.69,14203.0,7.0407e-05,4.7557,7.7035,152.38,22.85,40.643,477.42,0.03236,37.061,0.052379,supercritical,O2,C7782447,oxygen,154.58,50.43,13.6,0.07352941176470588,2.1,8.302399365457068,0.0009575352000000001
324.62,420.06,14236.0,7.0242e-05,4.7512,7.7018,152.34,22.853,40.647,478.08,0.032009,37.12,0.052465,supercritical,O2,C7782447,oxygen,154.58,50.43,13.6,0.07352941176470588,2.1,8.329565734681736,0.0009552911999999999
324.62,421.42,14270.0,7.0079e-05,4.7467,7.7,152.31,22.856,40.652,478.74,0.031659,37.18,0.052551,supercritical,O2,C7782447,oxygen,154.58,50.43,13.6,0.07352941176470588,2.1,8.356533809240531,0.0009530744000000001
324.62,422.79,14303.0,6.9917e-05,4.7422,7.6982,152.27,22.859,40.657,479.4,0.031311,37.239,0.052637,supercritical,O2,C7782447,oxygen,154.58,50.43,13.6,0.07352941176470588,2.1,8.3837001784652,0.0009508712
324.62,424.15,14336.0,6.9756e-05,4.7378,7.6965,152.24,22.862,40.661,480.06,0.030965,37.298,0.052722,supercritical,O2,C7782447,oxygen,154.58,50.43,13.6,0.07352941176470588,2.1,8.410668253023994,0.0009486816
324.62,425.51,14368.0,6.9597e-05,4.7334,7.6948,152.2,22.865,40.666,480.72,0.03062,37.357,0.052808,supercritical,O2,C7782447,oxygen,154.58,50.43,13.6,0.07352941176470588,2.1,8.437636327582787,0.0009465192
324.62,426.88,14401.0,6.9438e-05,4.7289,7.6931,152.17,22.867,40.67,481.38,0.030278,37.416,0.052894,supercritical,O2,C7782447,oxygen,154.58,50.43,13.6,0.07352941176470588,2.1,8.464802696807455,0.0009443567999999999
324.62,428.25,14434.0,6.9281e-05,4.7245,7.6914,152.13,22.87,40.674,482.04,0.029937,37.475,0.052979,supercritical,O2,C7782447,oxygen,154.58,50.43,13.6,0.07352941176470588,2.1,8.491969066032123,0.0009422216
324.62,429.61,14467.0,6.9125e-05,4.7201,7.6898,152.1,22.873,40.678,482.7,0.029598,37.534,0.053064,supercritical,O2,C7782447,oxygen,154.58,50.43,13.6,0.07352941176470588,2.1,8.518937140590918,0.0009400999999999999
324.62,430.98,14499.0,6.897e-05,4.7157,7.6882,152.06,22.876,40.682,483.37,0.029261,37.593,0.05315,supercritical,O2,C7782447,oxygen,154.58,50.43,13.6,0.07352941176470588,2.1,8.546103509815586,0.0009379919999999999
324.62,432.34,14531.0,6.8816e-05,4.7113,7.6865,152.03,22.879,40.686,484.03,0.028925,37.652,0.053235,supercritical,O2,C7782447,oxygen,154.58,50.43,13.6,0.07352941176470588,2.1,8.57307158437438,0.0009358976
324.62,433.7,14564.0,6.8663e-05,4.707,7.6849,152.0,22.881,40.69,484.69,0.028591,37.711,0.05332,supercritical,O2,C7782447,oxygen,154.58,50.43,13.6,0.07352941176470588,2.1,8.600039658933175,0.0009338168
324.62,435.07,14596.0,6.8512e-05,4.7026,7.6834,151.96,22.884,40.694,485.35,0.028259,37.77,0.053405,supercritical,O2,C7782447,oxygen,154.58,50.43,13.6,0.07352941176470588,2.1,8.627206028157843,0.0009317631999999999
324.62,436.44,14628.0,6.8361e-05,4.6983,7.6818,151.93,22.887,40.697,486.01,0.027929,37.829,0.05349,supercritical,O2,C7782447,oxygen,154.58,50.43,13.6,0.07352941176470588,2.1,8.654372397382511,0.0009297096
324.62,437.8,14660.0,6.8211e-05,4.694,7.6803,151.9,22.89,40.701,486.67,0.027601,37.888,0.053575,supercritical,O2,C7782447,oxygen,154.58,50.43,13.6,0.07352941176470588,2.1,8.681340471941304,0.0009276696
324.62,439.17,14692.0,6.8063e-05,4.6896,7.6787,151.86,22.893,40.704,487.33,0.027274,37.946,0.05366,supercritical,O2,C7782447,oxygen,154.58,50.43,13.6,0.07352941176470588,2.1,8.708506841165972,0.0009256568
324.62,440.53,14724.0,6.7916e-05,4.6853,7.6772,151.83,22.895,40.708,487.99,0.026949,38.005,0.053744,supercritical,O2,C7782447,oxygen,154.58,50.43,13.6,0.07352941176470588,2.1,8.735474915724767,0.0009236576
324.62,441.89,14756.0,6.7769e-05,4.6811,7.6757,151.8,22.898,40.711,488.65,0.026625,38.064,0.053829,supercritical,O2,C7782447,oxygen,154.58,50.43,13.6,0.07352941176470588,2.1,8.762442990283562,0.0009216583999999999
324.62,443.26,14788.0,6.7624e-05,4.6768,7.6743,151.76,22.901,40.714,489.32,0.026304,38.122,0.053914,supercritical,O2,C7782447,oxygen,154.58,50.43,13.6,0.07352941176470588,2.1,8.78960935950823,0.0009196864
324.62,444.62,14819.0,6.7479e-05,4.6725,7.6728,151.73,22.904,40.717,489.98,0.025983,38.181,0.053998,supercritical,O2,C7782447,oxygen,154.58,50.43,13.6,0.07352941176470588,2.1,8.816577434067023,0.0009177144
324.62,445.99,14851.0,6.7336e-05,4.6683,7.6714,151.7,22.906,40.72,490.64,0.025665,38.239,0.054083,supercritical,O2,C7782447,oxygen,154.58,50.43,13.6,0.07352941176470588,2.1,8.84374380329169,0.0009157695999999999
324.62,447.36,14882.0,6.7194e-05,4.664,7.67,151.66,22.909,40.723,491.3,0.025348,38.298,0.054167,supercritical,O2,C7782447,oxygen,154.58,50.43,13.6,0.07352941176470588,2.1,8.870910172516359,0.0009138383999999999
324.62,448.72,14914.0,6.7052e-05,4.6598,7.6686,151.63,22.912,40.726,491.96,0.025033,38.356,0.054251,supercritical,O2,C7782447,oxygen,154.58,50.43,13.6,0.07352941176470588,2.1,8.897878247075154,0.0009119071999999998
324.62,450.08,14945.0,6.6912e-05,4.6556,7.6672,151.6,22.915,40.728,492.62,0.02472,38.415,0.054335,supercritical,O2,C7782447,oxygen,154.58,50.43,13.6,0.07352941176470588,2.1,8.924846321633948,0.0009100032
324.62,451.45,14976.0,6.6773e-05,4.6514,7.6658,151.57,22.917,40.731,493.29,0.024408,38.473,0.05442,supercritical,O2,C7782447,oxygen,154.58,50.43,13.6,0.07352941176470588,2.1,8.952012690858616,0.0009081128
324.62,452.81,15007.0,6.6634e-05,4.6472,7.6645,151.54,22.92,40.733,493.95,0.024098,38.531,0.054504,supercritical,O2,C7782447,oxygen,154.58,50.43,13.6,0.07352941176470588,2.1,8.978980765417411,0.0009062224
324.62,454.18,15038.0,6.6497e-05,4.643,7.6631,151.5,22.923,40.736,494.61,0.023789,38.59,0.054588,supercritical,O2,C7782447,oxygen,154.58,50.43,13.6,0.07352941176470588,2.1,9.00614713464208,0.0009043591999999999
324.62,455.55,15069.0,6.636e-05,4.6388,7.6618,151.47,22.925,40.738,495.27,0.023482,38.648,0.054672,supercritical,O2,C7782447,oxygen,154.58,50.43,13.6,0.07352941176470588,2.1,9.033313503866747,0.0009024959999999999
324.62,456.91,15100.0,6.6225e-05,4.6347,7.6605,151.44,22.928,40.74,495.93,0.023177,38.706,0.054755,supercritical,O2,C7782447,oxygen,154.58,50.43,13.6,0.07352941176470588,2.1,9.06028157842554,0.00090066
324.62,458.27,15131.0,6.609e-05,4.6305,7.6592,151.41,22.931,40.743,496.59,0.022873,38.764,0.054839,supercritical,O2,C7782447,oxygen,154.58,50.43,13.6,0.07352941176470588,2.1,9.087249652984335,0.000898824
324.62,459.64,15162.0,6.5956e-05,4.6264,7.658,151.38,22.933,40.745,497.25,0.022571,38.822,0.054923,supercritical,O2,C7782447,oxygen,154.58,50.43,13.6,0.07352941176470588,2.1,9.114416022209003,0.0008970016
324.62,461.0,15192.0,6.5823e-05,4.6222,7.6567,151.34,22.936,40.747,497.92,0.022271,38.881,0.055006,supercritical,O2,C7782447,oxygen,154.58,50.43,13.6,0.07352941176470588,2.1,9.141384096767798,0.0008951927999999999
324.62,462.37,15223.0,6.5691e-05,4.6181,7.6555,151.31,22.939,40.749,498.58,0.021972,38.939,0.05509,supercritical,O2,C7782447,oxygen,154.58,50.43,13.6,0.07352941176470588,2.1,9.168550465992466,0.0008933976000000001
324.62,463.74,15253.0,6.556e-05,4.614,7.6543,151.28,22.941,40.75,499.24,0.021674,38.997,0.055173,supercritical,O2,C7782447,oxygen,154.58,50.43,13.6,0.07352941176470588,2.1,9.195716835217134,0.000891616
324.62,465.1,15284.0,6.543e-05,4.6099,7.6531,151.25,22.944,40.752,499.9,0.021378,39.055,0.055257,supercritical,O2,C7782447,oxygen,154.58,50.43,13.6,0.07352941176470588,2.1,9.222684909775927,0.000889848
324.62,466.46,15314.0,6.53e-05,4.6059,7.6519,151.22,22.947,40.754,500.56,0.021084,39.112,0.05534,supercritical,O2,C7782447,oxygen,154.58,50.43,13.6,0.07352941176470588,2.1,9.249652984334721,0.00088808
324.62,467.83,15344.0,6.5172e-05,4.6018,7.6507,151.19,22.949,40.756,501.22,0.020791,39.17,0.055423,supercritical,O2,C7782447,oxygen,154.58,50.43,13.6,0.07352941176470588,2.1,9.27681935355939,0.0008863392
324.62,469.19,15374.0,6.5044e-05,4.5977,7.6496,151.16,22.952,40.757,501.88,0.020499,39.228,0.055507,supercritical,O2,C7782447,oxygen,154.58,50.43,13.6,0.07352941176470588,2.1,9.303787428118184,0.0008845983999999999
324.62,470.56,15404.0,6.4918e-05,4.5937,7.6485,151.13,22.955,40.759,502.54,0.02021,39.286,0.05559,supercritical,O2,C7782447,oxygen,154.58,50.43,13.6,0.07352941176470588,2.1,9.330953797342852,0.0008828848000000001
324.62,471.93,15434.0,6.4792e-05,4.5897,7.6473,151.1,22.957,40.76,503.2,0.019921,39.344,0.055673,supercritical,O2,C7782447,oxygen,154.58,50.43,13.6,0.07352941176470588,2.1,9.35812016656752,0.0008811712
324.62,473.29,15464.0,6.4666e-05,4.5857,7.6462,151.07,22.96,40.761,503.86,0.019634,39.401,0.055756,supercritical,O2,C7782447,oxygen,154.58,50.43,13.6,0.07352941176470588,2.1,9.385088241126315,0.0008794575999999999
324.62,474.65,15494.0,6.4542e-05,4.5816,7.6452,151.03,22.962,40.763,504.52,0.019349,39.459,0.055839,supercritical,O2,C7782447,oxygen,154.58,50.43,13.6,0.07352941176470588,2.1,9.412056315685108,0.0008777712
324.62,476.02,15523.0,6.4419e-05,4.5776,7.6441,151.0,22.965,40.764,505.19,0.019065,39.517,0.055921,supercritical,O2,C7782447,oxygen,154.58,50.43,13.6,0.07352941176470588,2.1,9.439222684909776,0.0008760983999999999
324.62,477.38,15553.0,6.4296e-05,4.5737,7.643,150.97,22.968,40.765,505.85,0.018783,39.574,0.056004,supercritical,O2,C7782447,oxygen,154.58,50.43,13.6,0.07352941176470588,2.1,9.46619075946857,0.0008744256
324.62,478.75,15583.0,6.4174e-05,4.5697,7.642,150.94,22.97,40.766,506.51,0.018502,39.632,0.056087,supercritical,O2,C7782447,oxygen,154.58,50.43,13.6,0.07352941176470588,2.1,9.493357128693239,0.0008727664
324.62,480.12,15612.0,6.4053e-05,4.5657,7.641,150.91,22.973,40.767,507.17,0.018222,39.689,0.056169,supercritical,O2,C7782447,oxygen,154.58,50.43,13.6,0.07352941176470588,2.1,9.520523497917907,0.0008711208
324.62,481.48,15642.0,6.3932e-05,4.5618,7.64,150.88,22.975,40.768,507.83,0.017944,39.747,0.056252,supercritical,O2,C7782447,oxygen,154.58,50.43,13.6,0.07352941176470588,2.1,9.547491572476702,0.0008694751999999999
324.62,482.85,15671.0,6.3813e-05,4.5578,7.639,150.85,22.978,40.769,508.49,0.017667,39.804,0.056334,supercritical,O2,C7782447,oxygen,154.58,50.43,13.6,0.07352941176470588,2.1,9.57465794170137,0.0008678567999999999
324.62,484.21,15700.0,6.3694e-05,4.5539,7.638,150.82,22.981,40.77,509.15,0.017392,39.861,0.056417,supercritical,O2,C7782447,oxygen,154.58,50.43,13.6,0.07352941176470588,2.1,9.601626016260163,0.0008662384
324.62,485.57,15729.0,6.3576e-05,4.55,7.637,150.79,22.983,40.77,509.81,0.017118,39.919,0.056499,supercritical,O2,C7782447,oxygen,154.58,50.43,13.6,0.07352941176470588,2.1,9.628594090818957,0.0008646336000000001
324.62,486.94,15758.0,6.3459e-05,4.546,7.6361,150.76,22.986,40.771,510.46,0.016846,39.976,0.056581,supercritical,O2,C7782447,oxygen,154.58,50.43,13.6,0.07352941176470588,2.1,9.655760460043625,0.0008630424
324.62,488.31,15787.0,6.3342e-05,4.5421,7.6352,150.73,22.988,40.772,511.12,0.016575,40.033,0.056663,supercritical,O2,C7782447,oxygen,154.58,50.43,13.6,0.07352941176470588,2.1,9.682926829268293,0.0008614512
324.62,489.67,15816.0,6.3226e-05,4.5383,7.6343,150.71,22.991,40.772,511.78,0.016305,40.09,0.056745,supercritical,O2,C7782447,oxygen,154.58,50.43,13.6,0.07352941176470588,2.1,9.709894903827088,0.0008598735999999999
324.62,491.04,15845.0,6.3111e-05,4.5344,7.6334,150.68,22.993,40.773,512.44,0.016037,40.147,0.056827,supercritical,O2,C7782447,oxygen,154.58,50.43,13.6,0.07352941176470588,2.1,9.737061273051756,0.0008583096
324.62,492.4,15874.0,6.2997e-05,4.5305,7.6325,150.65,22.996,40.773,513.1,0.01577,40.205,0.056909,supercritical,O2,C7782447,oxygen,154.58,50.43,13.6,0.07352941176470588,2.1,9.764029347610549,0.0008567591999999999
324.62,493.76,15903.0,6.2883e-05,4.5267,7.6316,150.62,22.998,40.773,513.76,0.015505,40.262,0.056991,supercritical,O2,C7782447,oxygen,154.58,50.43,13.6,0.07352941176470588,2.1,9.790997422169344,0.0008552087999999999
324.62,495.13,15931.0,6.277e-05,4.5228,7.6307,150.59,23.001,40.774,514.42,0.01524,40.319,0.057073,supercritical,O2,C7782447,oxygen,154.58,50.43,13.6,0.07352941176470588,2.1,9.818163791394012,0.000853672
324.62,496.5,15960.0,6.2658e-05,4.519,7.6299,150.56,23.004,40.774,515.08,0.014978,40.376,0.057155,supercritical,O2,C7782447,oxygen,154.58,50.43,13.6,0.07352941176470588,2.1,9.84533016061868,0.0008521487999999999
324.62,497.86,15988.0,6.2546e-05,4.5151,7.6291,150.53,23.006,40.774,515.73,0.014716,40.433,0.057237,supercritical,O2,C7782447,oxygen,154.58,50.43,13.6,0.07352941176470588,2.1,9.872298235177475,0.0008506255999999999
324.62,499.23,16017.0,6.2436e-05,4.5113,7.6283,150.5,23.009,40.774,516.39,0.014456,40.489,0.057318,supercritical,O2,C7782447,oxygen,154.58,50.43,13.6,0.07352941176470588,2.1,9.899464604402143,0.0008491295999999999
324.62,500.59,16045.0,6.2325e-05,4.5075,7.6275,150.47,23.011,40.774,517.05,0.014197,40.546,0.0574,supercritical,O2,C7782447,oxygen,154.58,50.43,13.6,0.07352941176470588,2.1,9.926432678960936,0.0008476199999999999
324.62,501.95,16073.0,6.2216e-05,4.5037,7.6267,150.44,23.014,40.774,517.71,0.01394,40.603,0.057481,supercritical,O2,C7782447,oxygen,154.58,50.43,13.6,0.07352941176470588,2.1,9.95340075351973,0.0008461376
324.62,503.32,16101.0,6.2107e-05,4.4999,7.6259,150.42,23.016,40.774,518.37,0.013684,40.66,0.057563,supercritical,O2,C7782447,oxygen,154.58,50.43,13.6,0.07352941176470588,2.1,9.980567122744398,0.0008446551999999999
324.62,504.69,16129.0,6.1999e-05,4.4962,7.6252,150.39,23.019,40.774,519.02,0.013429,40.717,0.057644,supercritical,O2,C7782447,oxygen,154.58,50.43,13.6,0.07352941176470588,2.1,10.007733491969066,0.0008431864
324.62,506.05,16157.0,6.1891e-05,4.4924,7.6244,150.36,23.021,40.774,519.68,0.013175,40.773,0.057725,supercritical,O2,C7782447,oxygen,154.58,50.43,13.6,0.07352941176470588,2.1,10.034701566527861,0.0008417175999999998
324.62,507.42,16185.0,6.1785e-05,4.4887,7.6237,150.33,23.024,40.774,520.34,0.012923,40.83,0.057806,supercritical,O2,C7782447,oxygen,154.58,50.43,13.6,0.07352941176470588,2.1,10.06186793575253,0.000840276
324.62,508.78,16213.0,6.1678e-05,4.4849,7.623,150.3,23.026,40.774,520.99,0.012672,40.887,0.057887,supercritical,O2,C7782447,oxygen,154.58,50.43,13.6,0.07352941176470588,2.1,10.088836010311322,0.0008388207999999999
324.62,510.14,16241.0,6.1573e-05,4.4812,7.6223,150.28,23.029,40.773,521.65,0.012422,40.943,0.057969,supercritical,O2,C7782447,oxygen,154.58,50.43,13.6,0.07352941176470588,2.1,10.115804084870117,0.0008373928
324.62,511.51,16269.0,6.1468e-05,4.4775,7.6216,150.25,23.031,40.773,522.31,0.012174,41.0,0.05805,supercritical,O2,C7782447,oxygen,154.58,50.43,13.6,0.07352941176470588,2.1,10.142970454094785,0.0008359648
324.62,512.88,16296.0,6.1364e-05,4.4737,7.6209,150.22,23.033,40.773,522.96,0.011927,41.056,0.05813,supercritical,O2,C7782447,oxygen,154.58,50.43,13.6,0.07352941176470588,2.1,10.170136823319453,0.0008345504
324.62,514.24,16324.0,6.126e-05,4.47,7.6203,150.19,23.036,40.772,523.62,0.011681,41.113,0.058211,supercritical,O2,C7782447,oxygen,154.58,50.43,13.6,0.07352941176470588,2.1,10.197104897878248,0.0008331360000000001
324.62,515.61,16351.0,6.1157e-05,4.4663,7.6196,150.16,23.038,40.772,524.27,0.011436,41.169,0.058292,supercritical,O2,C7782447,oxygen,154.58,50.43,13.6,0.07352941176470588,2.1,10.224271267102916,0.0008317352
324.62,516.97,16379.0,6.1055e-05,4.4627,7.619,150.14,23.041,40.771,524.93,0.011193,41.226,0.058373,supercritical,O2,C7782447,oxygen,154.58,50.43,13.6,0.07352941176470588,2.1,10.25123934166171,0.0008303480000000001
324.62,518.34,16406.0,6.0953e-05,4.459,7.6184,150.11,23.043,40.771,525.58,0.01095,41.282,0.058454,supercritical,O2,C7782447,oxygen,154.58,50.43,13.6,0.07352941176470588,2.1,10.278405710886378,0.0008289608