Temperature (K),Pressure (bar),Density (mol/m3),Volume (m3/mol),Internal Energy (kJ/mol),Enthalpy (kJ/mol),Entropy (J/mol*K),Cv (J/mol*K),Cp (J/mol*K),Sound Spd. (m/s),Joule-Thomson (K/bar),Viscosity (uPa*s),Therm. Cond. (W/m*K),Phase,substance,substance_id,substance_name,Tc,Pc,rhoc,Vmc,Tr,Pr,Vmr
395.43,1.0,30.473,0.032816,22.815,26.097,131.66,32.884,41.281,305.66,0.54618,19.431,0.024347,vapor,CO2,C124389,carbon-dioxide,304.18,73.8,10.6,0.09433962264150944,1.3,0.013550135501355014,0.3478495999999999
395.43,3.4583,105.88,0.0094448,22.775,26.041,121.24,32.965,41.57,304.92,0.5455,19.465,0.024459,vapor,CO2,C124389,carbon-dioxide,304.18,73.8,10.6,0.09433962264150944,1.3,0.046860433604336046,0.10011487999999999
395.43,5.9167,181.99,0.0054947,22.734,25.985,116.68,33.047,41.865,304.19,0.54477,19.501,0.024574,vapor,CO2,C124389,carbon-dioxide,304.18,73.8,10.6,0.09433962264150944,1.3,0.0801720867208672,0.058243819999999995
395.43,8.375,258.83,0.0038635,22.693,25.929,113.68,33.13,42.167,303.47,0.54401,19.538,0.02469,vapor,CO2,C124389,carbon-dioxide,304.18,73.8,10.6,0.09433962264150944,1.3,0.11348238482384825,0.0409531
395.43,10.833,336.4,0.0029726,22.652,25.873,111.44,33.213,42.476,302.75,0.5432,19.576,0.02481,vapor,CO2,C124389,carbon-dioxide,304.18,73.8,10.6,0.09433962264150944,1.3,0.14678861788617886,0.03150956
395.43,13.292,414.72,0.0024113,22.611,25.816,109.63,33.297,42.791,302.03,0.54234,19.616,0.024931,vapor,CO2,C124389,carbon-dioxide,304.18,73.8,10.6,0.09433962264150944,1.3,0.18010840108401086,0.025559779999999997
395.43,15.75,493.79,0.0020252,22.569,25.758,108.12,33.381,43.113,301.33,0.54144,19.657,0.025056,vapor,CO2,C124389,carbon-dioxide,304.18,73.8,10.6,0.09433962264150944,1.3,0.21341463414634146,0.02146712
395.43,18.208,573.63,0.0017433,22.527,25.701,106.8,33.466,43.442,300.63,0.54048,19.699,0.025183,vapor,CO2,C124389,carbon-dioxide,304.18,73.8,10.6,0.09433962264150944,1.3,0.24672086720867206,0.01847898
395.43,20.667,654.26,0.0015284,22.484,25.643,105.64,33.551,43.779,299.93,0.53948,19.743,0.025313,vapor,CO2,C124389,carbon-dioxide,304.18,73.8,10.6,0.09433962264150944,1.3,0.2800406504065041,0.01620104
395.43,23.125,735.68,0.0013593,22.441,25.585,104.6,33.637,44.123,299.25,0.53842,19.789,0.025446,vapor,CO2,C124389,carbon-dioxide,304.18,73.8,10.6,0.09433962264150944,1.3,0.3133468834688347,0.014408579999999999
395.43,25.583,817.91,0.0012226,22.398,25.526,103.65,33.724,44.475,298.57,0.53732,19.836,0.025583,vapor,CO2,C124389,carbon-dioxide,304.18,73.8,10.6,0.09433962264150944,1.3,0.3466531165311653,0.012959559999999998
395.43,28.042,900.95,0.0011099,22.355,25.467,102.78,33.811,44.835,297.9,0.53615,19.885,0.025722,vapor,CO2,C124389,carbon-dioxide,304.18,73.8,10.6,0.09433962264150944,1.3,0.37997289972899734,0.01176494
395.43,30.5,984.84,0.0010154,22.311,25.408,101.97,33.898,45.203,297.24,0.53493,19.935,0.025864,vapor,CO2,C124389,carbon-dioxide,304.18,73.8,10.6,0.09433962264150944,1.3,0.41327913279132794,0.01076324
395.43,32.958,1069.6,0.00093496,22.267,25.348,101.21,33.986,45.579,296.59,0.53365,19.987,0.02601,vapor,CO2,C124389,carbon-dioxide,304.18,73.8,10.6,0.09433962264150944,1.3,0.44658536585365854,0.009910575999999999
395.43,35.417,1155.2,0.00086568,22.222,25.288,100.5,34.075,45.964,295.95,0.53231,20.041,0.02616,vapor,CO2,C124389,carbon-dioxide,304.18,73.8,10.6,0.09433962264150944,1.3,0.47990514905149056,0.009176207999999998
395.43,37.875,1241.6,0.00080539,22.178,25.228,99.829,34.164,46.357,295.32,0.53091,20.097,0.026313,vapor,CO2,C124389,carbon-dioxide,304.18,73.8,10.6,0.09433962264150944,1.3,0.5132113821138211,0.008537134
395.43,40.333,1329.0,0.00075246,22.132,25.167,99.192,34.254,46.759,294.69,0.52944,20.155,0.02647,vapor,CO2,C124389,carbon-dioxide,304.18,73.8,10.6,0.09433962264150944,1.3,0.5465176151761517,0.007976076
395.43,42.792,1417.2,0.0007056,22.087,25.106,98.584,34.343,47.17,294.08,0.52791,20.214,0.02663,vapor,CO2,C124389,carbon-dioxide,304.18,73.8,10.6,0.09433962264150944,1.3,0.5798373983739837,0.00747936
395.43,45.25,1506.4,0.00066383,22.041,25.045,98.004,34.434,47.59,293.47,0.52631,20.276,0.026795,vapor,CO2,C124389,carbon-dioxide,304.18,73.8,10.6,0.09433962264150944,1.3,0.6131436314363143,0.007036598
395.43,47.708,1596.5,0.00062636,21.995,24.983,97.447,34.524,48.02,292.88,0.52464,20.34,0.026964,vapor,CO2,C124389,carbon-dioxide,304.18,73.8,10.6,0.09433962264150944,1.3,0.6464498644986449,0.006639415999999999
395.43,50.167,1687.6,0.00059257,21.948,24.921,96.911,34.616,48.459,292.3,0.5229,20.406,0.027136,vapor,CO2,C124389,carbon-dioxide,304.18,73.8,10.6,0.09433962264150944,1.3,0.679769647696477,0.006281242
395.43,52.625,1779.6,0.00056193,21.901,24.859,96.394,34.707,48.908,291.73,0.52109,20.475,0.027314,vapor,CO2,C124389,carbon-dioxide,304.18,73.8,10.6,0.09433962264150944,1.3,0.7130758807588076,0.0059564579999999995
395.43,55.083,1872.6,0.00053403,21.854,24.796,95.895,34.799,49.367,291.17,0.5192,20.546,0.027495,vapor,CO2,C124389,carbon-dioxide,304.18,73.8,10.6,0.09433962264150944,1.3,0.7463821138211382,0.0056607179999999995
395.43,57.542,1966.5,0.00050851,21.807,24.733,95.411,34.891,49.836,290.63,0.51724,20.619,0.027682,vapor,CO2,C124389,carbon-dioxide,304.18,73.8,10.6,0.09433962264150944,1.3,0.7797018970189702,0.005390206
395.43,60.0,2061.5,0.00048509,21.759,24.669,94.942,34.983,50.315,290.1,0.51519,20.694,0.027873,vapor,CO2,C124389,carbon-dioxide,304.18,73.8,10.6,0.09433962264150944,1.3,0.8130081300813008,0.005141954
395.43,62.458,2157.5,0.00046351,21.71,24.605,94.485,35.076,50.804,289.58,0.51307,20.773,0.028069,vapor,CO2,C124389,carbon-dioxide,304.18,73.8,10.6,0.09433962264150944,1.3,0.8463143631436314,0.004913206
395.43,64.917,2254.5,0.00044357,21.661,24.541,94.041,35.169,51.304,289.08,0.51087,20.854,0.02827,vapor,CO2,C124389,carbon-dioxide,304.18,73.8,10.6,0.09433962264150944,1.3,0.8796341463414634,0.0047018419999999995
395.43,67.375,2352.5,0.00042508,21.612,24.476,93.608,35.262,51.815,288.59,0.50858,20.937,0.028476,vapor,CO2,C124389,carbon-dioxide,304.18,73.8,10.6,0.09433962264150944,1.3,0.912940379403794,0.004505848
395.43,69.833,2451.6,0.0004079,21.563,24.411,93.184,35.355,52.337,288.12,0.50621,21.024,0.028687,vapor,CO2,C124389,carbon-dioxide,304.18,73.8,10.6,0.09433962264150944,1.3,0.9462466124661246,0.0043237399999999995
395.43,72.292,2551.7,0.00039189,21.513,24.346,92.771,35.449,52.869,287.67,0.50375,21.113,0.028904,vapor,CO2,C124389,carbon-dioxide,304.18,73.8,10.6,0.09433962264150944,1.3,0.9795663956639566,0.004154034
395.43,74.75,2652.9,0.00037694,21.463,24.28,92.366,35.542,53.412,287.23,0.50121,21.206,0.029126,vapor,CO2,C124389,carbon-dioxide,304.18,73.8,10.6,0.09433962264150944,1.3,1.0128726287262872,0.003995563999999999
395.43,74.75,2652.9,0.00037694,21.463,24.28,92.366,35.542,53.412,287.23,0.50121,21.206,0.029126,supercritical,CO2,C124389,carbon-dioxide,304.18,73.8,10.6,0.09433962264150944,1.3,1.0128726287262872,0.003995563999999999
395.43,77.208,2755.2,0.00036295,21.412,24.214,91.969,35.636,53.967,286.81,0.49857,21.302,0.029355,supercritical,CO2,C124389,carbon-dioxide,304.18,73.8,10.6,0.09433962264150944,1.3,1.0461788617886179,0.00384727
395.43,79.667,2858.6,0.00034982,21.361,24.148,91.58,35.729,54.532,286.41,0.49584,21.401,0.029589,supercritical,CO2,C124389,carbon-dioxide,304.18,73.8,10.6,0.09433962264150944,1.3,1.0794986449864499,0.0037080919999999996
395.43,82.125,2963.1,0.00033749,21.31,24.081,91.198,35.823,55.109,286.04,0.49303,21.503,0.029829,supercritical,CO2,C124389,carbon-dioxide,304.18,73.8,10.6,0.09433962264150944,1.3,1.1128048780487805,0.003577394
395.43,84.583,3068.6,0.00032588,21.258,24.014,90.822,35.916,55.697,285.68,0.49012,21.608,0.030075,supercritical,CO2,C124389,carbon-dioxide,304.18,73.8,10.6,0.09433962264150944,1.3,1.146111111111111,0.003454328
395.43,87.042,3175.3,0.00031493,21.206,23.947,90.453,36.01,56.296,285.34,0.48711,21.718,0.030327,supercritical,CO2,C124389,carbon-dioxide,304.18,73.8,10.6,0.09433962264150944,1.3,1.179430894308943,0.0033382579999999998
395.43,89.5,3283.2,0.00030459,21.154,23.88,90.09,36.103,56.906,285.03,0.48402,21.83,0.030586,supercritical,CO2,C124389,carbon-dioxide,304.18,73.8,10.6,0.09433962264150944,1.3,1.2127371273712737,0.0032286539999999996
395.43,91.958,3392.1,0.0002948,21.101,23.812,89.732,36.196,57.527,284.74,0.48082,21.947,0.030852,supercritical,CO2,C124389,carbon-dioxide,304.18,73.8,10.6,0.09433962264150944,1.3,1.2460433604336043,0.00312488
395.43,94.417,3502.1,0.00028554,21.048,23.744,89.379,36.289,58.159,284.48,0.47754,22.067,0.031124,supercritical,CO2,C124389,carbon-dioxide,304.18,73.8,10.6,0.09433962264150944,1.3,1.2793631436314363,0.0030267239999999997
395.43,96.875,3613.3,0.00027675,20.994,23.675,89.031,36.382,58.801,284.24,0.47415,22.192,0.031402,supercritical,CO2,C124389,carbon-dioxide,304.18,73.8,10.6,0.09433962264150944,1.3,1.312669376693767,0.0029335499999999996
395.43,99.333,3725.6,0.00026841,20.94,23.607,88.688,36.474,59.454,284.03,0.47068,22.32,0.031688,supercritical,CO2,C124389,carbon-dioxide,304.18,73.8,10.6,0.09433962264150944,1.3,1.3459756097560975,0.002845146
395.43,101.79,3839.1,0.00026048,20.886,23.538,88.35,36.566,60.117,283.84,0.4671,22.453,0.03198,supercritical,CO2,C124389,carbon-dioxide,304.18,73.8,10.6,0.09433962264150944,1.3,1.379268292682927,0.0027610879999999997
395.43,104.25,3953.6,0.00025293,20.832,23.469,88.015,36.657,60.79,283.69,0.46343,22.59,0.03228,supercritical,CO2,C124389,carbon-dioxide,304.18,73.8,10.6,0.09433962264150944,1.3,1.4126016260162602,0.002681058
395.43,106.71,4069.3,0.00024574,20.777,23.399,87.685,36.748,61.473,283.56,0.45967,22.731,0.032587,supercritical,CO2,C124389,carbon-dioxide,304.18,73.8,10.6,0.09433962264150944,1.3,1.4459349593495934,0.002604844
395.43,109.17,4186.0,0.00023889,20.722,23.33,87.358,36.838,62.165,283.47,0.45581,22.877,0.0329,supercritical,CO2,C124389,carbon-dioxide,304.18,73.8,10.6,0.09433962264150944,1.3,1.4792682926829268,0.002532234
395.43,111.63,4303.9,0.00023235,20.666,23.26,87.035,36.928,62.866,283.41,0.45185,23.028,0.033221,supercritical,CO2,C124389,carbon-dioxide,304.18,73.8,10.6,0.09433962264150944,1.3,1.5126016260162602,0.00246291
395.43,114.08,4422.8,0.0002261,20.611,23.19,86.716,37.017,63.575,283.38,0.44781,23.183,0.033549,supercritical,CO2,C124389,carbon-dioxide,304.18,73.8,10.6,0.09433962264150944,1.3,1.54579945799458,0.0023966599999999997
395.43,116.54,4542.8,0.00022013,20.554,23.12,86.4,37.105,64.292,283.38,0.44367,23.343,0.033884,supercritical,CO2,C124389,carbon-dioxide,304.18,73.8,10.6,0.09433962264150944,1.3,1.5791327913279134,0.0023333779999999997
395.43,119.0,4663.9,0.00021441,20.498,23.05,86.088,37.192,65.016,283.42,0.43945,23.508,0.034227,supercritical,CO2,C124389,carbon-dioxide,304.18,73.8,10.6,0.09433962264150944,1.3,1.6124661246612466,0.002272746
395.43,121.46,4785.9,0.00020895,20.442,22.979,85.778,37.279,65.747,283.5,0.43513,23.678,0.034576,supercritical,CO2,C124389,carbon-dioxide,304.18,73.8,10.6,0.09433962264150944,1.3,1.6457994579945798,0.00221487
395.43,123.92,4909.0,0.00020371,20.385,22.909,85.472,37.364,66.483,283.61,0.43073,23.853,0.034933,supercritical,CO2,C124389,carbon-dioxide,304.18,73.8,10.6,0.09433962264150944,1.3,1.6791327913279133,0.002159326
395.43,126.38,5033.0,0.00019869,20.328,22.839,85.169,37.448,67.224,283.77,0.42625,24.034,0.035297,supercritical,CO2,C124389,carbon-dioxide,304.18,73.8,10.6,0.09433962264150944,1.3,1.7124661246612467,0.002106114
395.43,128.83,5158.0,0.00019387,20.27,22.768,84.869,37.531,67.969,283.96,0.42168,24.22,0.035667,supercritical,CO2,C124389,carbon-dioxide,304.18,73.8,10.6,0.09433962264150944,1.3,1.7456639566395666,0.002055022
395.43,131.29,5283.9,0.00018925,20.213,22.698,84.572,37.613,68.716,284.19,0.41704,24.411,0.036044,supercritical,CO2,C124389,carbon-dioxide,304.18,73.8,10.6,0.09433962264150944,1.3,1.7789972899728996,0.0020060499999999997
395.43,133.75,5410.7,0.00018482,20.155,22.627,84.277,37.694,69.466,284.47,0.41232,24.607,0.036429,supercritical,CO2,C124389,carbon-dioxide,304.18,73.8,10.6,0.09433962264150944,1.3,1.812330623306233,0.001959092
395.43,136.21,5538.4,0.00018056,20.098,22.557,83.986,37.774,70.217,284.79,0.40753,24.809,0.036819,supercritical,CO2,C124389,carbon-dioxide,304.18,73.8,10.6,0.09433962264150944,1.3,1.8456639566395665,0.0019139359999999998
395.43,138.67,5666.8,0.00017647,20.04,22.487,83.697,37.852,70.967,285.15,0.40266,25.017,0.037216,supercritical,CO2,C124389,carbon-dioxide,304.18,73.8,10.6,0.09433962264150944,1.3,1.8789972899728997,0.0018705819999999998
395.43,141.13,5795.9,0.00017253,19.982,22.416,83.411,37.928,71.717,285.56,0.39773,25.23,0.037619,supercritical,CO2,C124389,carbon-dioxide,304.18,73.8,10.6,0.09433962264150944,1.3,1.9123306233062332,0.0018288179999999998
395.43,143.58,5925.8,0.00016875,19.923,22.346,83.128,38.003,72.463,286.01,0.39274,25.449,0.038028,supercritical,CO2,C124389,carbon-dioxide,304.18,73.8,10.6,0.09433962264150944,1.3,1.945528455284553,0.00178875
395.43,146.04,6056.3,0.00016512,19.865,22.277,82.847,38.077,73.205,286.52,0.38769,25.674,0.038443,supercritical,CO2,C124389,carbon-dioxide,304.18,73.8,10.6,0.09433962264150944,1.3,1.978861788617886,0.0017502719999999998
395.43,148.5,6187.4,0.00016162,19.807,22.207,82.569,38.148,73.942,287.06,0.38259,25.904,0.038863,supercritical,CO2,C124389,carbon-dioxide,304.18,73.8,10.6,0.09433962264150944,1.3,2.0121951219512195,0.0017131719999999998
395.43,150.96,6319.1,0.00015825,19.749,22.137,82.295,38.219,74.672,287.66,0.37743,26.14,0.039288,supercritical,CO2,C124389,carbon-dioxide,304.18,73.8,10.6,0.09433962264150944,1.3,2.045528455284553,0.0016774499999999998
395.43,153.42,6451.2,0.00015501,19.69,22.068,82.022,38.287,75.395,288.31,0.37223,26.381,0.039718,supercritical,CO2,C124389,carbon-dioxide,304.18,73.8,10.6,0.09433962264150944,1.3,2.078861788617886,0.0016431059999999999
395.43,155.88,6583.7,0.00015189,19.632,21.999,81.753,38.353,76.107,289.0,0.36699,26.629,0.040153,supercritical,CO2,C124389,carbon-dioxide,304.18,73.8,10.6,0.09433962264150944,1.3,2.1121951219512196,0.001610034
395.43,158.33,6716.6,0.00014889,19.574,21.931,81.486,38.418,76.809,289.75,0.36172,26.882,0.040592,supercritical,CO2,C124389,carbon-dioxide,304.18,73.8,10.6,0.09433962264150944,1.3,2.1453929539295395,0.0015782339999999998
395.43,160.79,6849.7,0.00014599,19.515,21.863,81.222,38.481,77.498,290.55,0.35641,27.14,0.041034,supercritical,CO2,C124389,carbon-dioxide,304.18,73.8,10.6,0.09433962264150944,1.3,2.1787262872628728,0.001547494
395.43,163.25,6983.1,0.0001432,19.457,21.795,80.961,38.542,78.174,291.4,0.35108,27.404,0.04148,supercritical,CO2,C124389,carbon-dioxide,304.18,73.8,10.6,0.09433962264150944,1.3,2.212059620596206,0.00151792
395.43,165.71,7116.6,0.00014052,19.399,21.728,80.703,38.601,78.834,292.3,0.34573,27.674,0.04193,supercritical,CO2,C124389,carbon-dioxide,304.18,73.8,10.6,0.09433962264150944,1.3,2.2453929539295396,0.0014895119999999997
395.43,168.17,7250.1,0.00013793,19.342,21.661,80.448,38.658,79.478,293.25,0.34036,27.949,0.042382,supercritical,CO2,C124389,carbon-dioxide,304.18,73.8,10.6,0.09433962264150944,1.3,2.2787262872628724,0.001462058
395.43,170.63,7383.6,0.00013543,19.284,21.595,80.195,38.713,80.105,294.25,0.33499,28.229,0.042836,supercritical,CO2,C124389,carbon-dioxide,304.18,73.8,10.6,0.09433962264150944,1.3,2.312059620596206,0.0014355579999999998
395.43,173.08,7517.1,0.00013303,19.227,21.529,79.946,38.766,80.712,295.3,0.32961,28.514,0.043293,supercritical,CO2,C124389,carbon-dioxide,304.18,73.8,10.6,0.09433962264150944,1.3,2.345257452574526,0.001410118
395.43,175.54,7650.4,0.00013071,19.17,21.464,79.699,38.816,81.3,296.4,0.32424,28.804,0.043751,supercritical,CO2,C124389,carbon-dioxide,304.18,73.8,10.6,0.09433962264150944,1.3,2.378590785907859,0.001385526
395.43,178.0,7783.4,0.00012848,19.113,21.4,79.455,38.865,81.867,297.56,0.31887,29.1,0.04421,supercritical,CO2,C124389,carbon-dioxide,304.18,73.8,10.6,0.09433962264150944,1.3,2.4119241192411924,0.0013618879999999997
395.43,180.46,7916.1,0.00012632,19.056,21.336,79.215,38.912,82.412,298.76,0.31351,29.4,0.044671,supercritical,CO2,C124389,carbon-dioxide,304.18,73.8,10.6,0.09433962264150944,1.3,2.445257452574526,0.0013389919999999998
395.43,182.92,8048.4,0.00012425,19.0,21.273,78.977,38.957,82.934,300.02,0.30818,29.704,0.045132,supercritical,CO2,C124389,carbon-dioxide,304.18,73.8,10.6,0.09433962264150944,1.3,2.478590785907859,0.00131705
395.43,185.38,8180.3,0.00012224,18.944,21.21,78.742,39.0,83.433,301.32,0.30286,30.013,0.045594,supercritical,CO2,C124389,carbon-dioxide,304.18,73.8,10.6,0.09433962264150944,1.3,2.5119241192411925,0.001295744
395.43,187.83,8311.7,0.00012031,18.889,21.148,78.511,39.041,83.908,302.67,0.29758,30.326,0.046055,supercritical,CO2,C124389,carbon-dioxide,304.18,73.8,10.6,0.09433962264150944,1.3,2.5451219512195125,0.001275286
395.43,190.29,8442.4,0.00011845,18.833,21.087,78.282,39.08,84.359,304.07,0.29233,30.643,0.046516,supercritical,CO2,C124389,carbon-dioxide,304.18,73.8,10.6,0.09433962264150944,1.3,2.5784552845528457,0.00125557
395.43,192.75,8572.5,0.00011665,18.779,21.027,78.057,39.117,84.785,305.51,0.28712,30.964,0.046977,supercritical,CO2,C124389,carbon-dioxide,304.18,73.8,10.6,0.09433962264150944,1.3,2.611788617886179,0.00123649
395.43,195.21,8701.8,0.00011492,18.724,20.968,77.835,39.153,85.186,307.0,0.28195,31.289,0.047437,supercritical,CO2,C124389,carbon-dioxide,304.18,73.8,10.6,0.09433962264150944,1.3,2.6451219512195125,0.001218152
395.43,197.67,8830.3,0.00011325,18.671,20.909,77.615,39.186,85.562,308.54,0.27683,31.617,0.047896,supercritical,CO2,C124389,carbon-dioxide,304.18,73.8,10.6,0.09433962264150944,1.3,2.6784552845528453,0.0012004499999999998
395.43,200.12,8958.0,0.00011163,18.617,20.851,77.399,39.218,85.913,310.11,0.27175,31.948,0.048353,supercritical,CO2,C124389,carbon-dioxide,304.18,73.8,10.6,0.09433962264150944,1.3,2.7116531165311657,0.0011832779999999998
395.43,202.58,9084.8,0.00011007,18.564,20.794,77.186,39.248,86.239,311.73,0.26674,32.283,0.048809,supercritical,CO2,C124389,carbon-dioxide,304.18,73.8,10.6,0.09433962264150944,1.3,2.744986449864499,0.001166742
395.43,205.04,9210.6,0.00010857,18.512,20.738,76.976,39.276,86.54,313.39,0.26178,32.62,0.049263,supercritical,CO2,C124389,carbon-dioxide,304.18,73.8,10.6,0.09433962264150944,1.3,2.778319783197832,0.001150842
395.43,207.5,9335.4,0.00010712,18.46,20.683,76.77,39.303,86.816,315.09,0.25688,32.96,0.049715,supercritical,CO2,C124389,carbon-dioxide,304.18,73.8,10.6,0.09433962264150944,1.3,2.8116531165311653,0.001135472
395.43,209.96,9459.1,0.00010572,18.409,20.629,76.566,39.328,87.068,316.83,0.25204,33.302,0.050165,supercritical,CO2,C124389,carbon-dioxide,304.18,73.8,10.6,0.09433962264150944,1.3,2.844986449864499,0.0011206319999999999
395.43,212.42,9581.8,0.00010436,18.358,20.575,76.365,39.351,87.297,318.6,0.24727,33.646,0.050613,supercritical,CO2,C124389,carbon-dioxide,304.18,73.8,10.6,0.09433962264150944,1.3,2.8783197831978318,0.001106216
395.43,214.87,9703.3,0.00010306,18.308,20.522,76.168,39.374,87.502,320.41,0.24257,33.992,0.051058,supercritical,CO2,C124389,carbon-dioxide,304.18,73.8,10.6,0.09433962264150944,1.3,2.911517615176152,0.001092436
395.43,217.33,9823.6,0.0001018,18.258,20.471,75.973,39.394,87.685,322.26,0.23794,34.34,0.0515,supercritical,CO2,C124389,carbon-dioxide,304.18,73.8,10.6,0.09433962264150944,1.3,2.9448509485094854,0.0010790799999999998
395.43,219.79,9942.7,0.00010058,18.209,20.42,75.782,39.414,87.845,324.13,0.23338,34.69,0.05194,supercritical,CO2,C124389,carbon-dioxide,304.18,73.8,10.6,0.09433962264150944,1.3,2.9781842818428186,0.001066148
395.43,222.25,10061.0,9.9398e-05,18.161,20.37,75.593,39.432,87.985,326.04,0.22889,35.041,0.052377,supercritical,CO2,C124389,carbon-dioxide,304.18,73.8,10.6,0.09433962264150944,1.3,3.011517615176152,0.0010536188
395.43,224.71,10177.0,9.8259e-05,18.113,20.321,75.408,39.449,88.103,327.98,0.22447,35.393,0.052811,supercritical,CO2,C124389,carbon-dioxide,304.18,73.8,10.6,0.09433962264150944,1.3,3.0448509485094855,0.0010415454