Temperature (K),Pressure (bar),Density (mol/m3),Volume (m3/mol),Internal Energy (kJ/mol),Enthalpy (kJ/mol),Entropy (J/mol*K),Cv (J/mol*K),Cp (J/mol*K),Sound Spd. (m/s),Joule-Thomson (K/bar),Viscosity (uPa*s),Therm. Cond. (W/m*K),Phase,substance,substance_id,substance_name,Tc,Pc,rhoc,Vmc,Tr,Pr,Vmr
256.46,142.81,7630.2,0.00013106,2.0515,3.9232,106.24,13.901,33.098,325.6,0.2628,26.492,0.024846,supercritical,Ar,C7440371,argon,150.86,48.9805,13.41,0.07457121551081282,1.6999999999999997,2.915650105654291,0.0017575146000000004
256.46,144.44,7721.7,0.0001295,2.0385,3.909,106.1,13.913,33.227,326.29,0.26024,26.606,0.024985,supercritical,Ar,C7440371,argon,150.86,48.9805,13.41,0.07457121551081282,1.6999999999999997,2.9489286552811835,0.0017365950000000003
256.46,146.07,7813.2,0.00012799,2.0255,3.895,105.96,13.925,33.353,327.0,0.25768,26.721,0.025124,supercritical,Ar,C7440371,argon,150.86,48.9805,13.41,0.07457121551081282,1.6999999999999997,2.9822072049080757,0.0017163459
256.46,147.7,7904.5,0.00012651,2.0125,3.881,105.83,13.937,33.479,327.72,0.25513,26.837,0.025263,supercritical,Ar,C7440371,argon,150.86,48.9805,13.41,0.07457121551081282,1.6999999999999997,3.015485754534968,0.0016964991000000002
256.46,149.33,7995.7,0.00012507,1.9995,3.8671,105.69,13.948,33.602,328.44,0.2526,26.953,0.025402,supercritical,Ar,C7440371,argon,150.86,48.9805,13.41,0.07457121551081282,1.6999999999999997,3.048764304161861,0.0016771887
256.46,150.96,8086.8,0.00012366,1.9866,3.8534,105.56,13.959,33.725,329.17,0.25008,27.07,0.025542,supercritical,Ar,C7440371,argon,150.86,48.9805,13.41,0.07457121551081282,1.6999999999999997,3.082042853788753,0.0016582806
256.46,152.59,8177.7,0.00012228,1.9737,3.8397,105.43,13.971,33.845,329.92,0.24756,27.188,0.025681,supercritical,Ar,C7440371,argon,150.86,48.9805,13.41,0.07457121551081282,1.6999999999999997,3.115321403415645,0.0016397748000000001
256.46,154.22,8268.4,0.00012094,1.9609,3.826,105.3,13.982,33.964,330.67,0.24506,27.306,0.025821,supercritical,Ar,C7440371,argon,150.86,48.9805,13.41,0.07457121551081282,1.6999999999999997,3.1485999530425373,0.0016218054000000002
256.46,155.85,8359.0,0.00011963,1.9481,3.8125,105.17,13.993,34.081,331.43,0.24257,27.424,0.025961,supercritical,Ar,C7440371,argon,150.86,48.9805,13.41,0.07457121551081282,1.6999999999999997,3.1818785026694294,0.0016042383000000001
256.46,157.48,8449.4,0.00011835,1.9353,3.7991,105.04,14.003,34.196,332.2,0.24009,27.544,0.026102,supercritical,Ar,C7440371,argon,150.86,48.9805,13.41,0.07457121551081282,1.6999999999999997,3.215157052296322,0.0015870735000000002
256.46,159.11,8539.5,0.0001171,1.9225,3.7858,104.91,14.014,34.31,332.98,0.23763,27.664,0.026242,supercritical,Ar,C7440371,argon,150.86,48.9805,13.41,0.07457121551081282,1.6999999999999997,3.2484356019232146,0.0015703110000000002
256.46,160.74,8629.6,0.00011588,1.9098,3.7725,104.79,14.025,34.422,333.76,0.23518,27.784,0.026383,supercritical,Ar,C7440371,argon,150.86,48.9805,13.41,0.07457121551081282,1.6999999999999997,3.2817141515501067,0.0015539508000000002
256.46,162.37,8719.3,0.00011469,1.8972,3.7594,104.66,14.035,34.532,334.56,0.23274,27.905,0.026524,supercritical,Ar,C7440371,argon,150.86,48.9805,13.41,0.07457121551081282,1.6999999999999997,3.3149927011769993,0.0015379929000000003
256.46,164.0,8808.9,0.00011352,1.8846,3.7463,104.54,14.045,34.641,335.36,0.23031,28.027,0.026665,supercritical,Ar,C7440371,argon,150.86,48.9805,13.41,0.07457121551081282,1.6999999999999997,3.3482712508038914,0.0015223032
256.46,165.63,8898.3,0.00011238,1.872,3.7334,104.42,14.055,34.747,336.17,0.2279,28.149,0.026806,supercritical,Ar,C7440371,argon,150.86,48.9805,13.41,0.07457121551081282,1.6999999999999997,3.3815498004307836,0.0015070158000000003
256.46,167.26,8987.4,0.00011127,1.8595,3.7205,104.3,14.065,34.852,336.99,0.22551,28.272,0.026947,supercritical,Ar,C7440371,argon,150.86,48.9805,13.41,0.07457121551081282,1.6999999999999997,3.4148283500576757,0.0014921307000000002
256.46,168.89,9076.4,0.00011018,1.847,3.7077,104.18,14.075,34.955,337.82,0.22312,28.396,0.027089,supercritical,Ar,C7440371,argon,150.86,48.9805,13.41,0.07457121551081282,1.6999999999999997,3.4481068996845683,0.0014775138000000002
256.46,170.52,9165.0,0.00010911,1.8345,3.6951,104.06,14.085,35.056,338.66,0.22075,28.52,0.02723,supercritical,Ar,C7440371,argon,150.86,48.9805,13.41,0.07457121551081282,1.6999999999999997,3.481385449311461,0.0014631651000000002
256.46,172.15,9253.4,0.00010807,1.8221,3.6825,103.94,14.095,35.155,339.5,0.2184,28.644,0.027372,supercritical,Ar,C7440371,argon,150.86,48.9805,13.41,0.07457121551081282,1.6999999999999997,3.514663998938353,0.0014492187000000002
256.46,173.78,9341.6,0.00010705,1.8098,3.67,103.82,14.104,35.252,340.36,0.21606,28.77,0.027514,supercritical,Ar,C7440371,argon,150.86,48.9805,13.41,0.07457121551081282,1.6999999999999997,3.5479425485652456,0.0014355405
256.46,175.41,9429.5,0.00010605,1.7975,3.6577,103.71,14.114,35.347,341.22,0.21373,28.896,0.027656,supercritical,Ar,C7440371,argon,150.86,48.9805,13.41,0.07457121551081282,1.6999999999999997,3.5812210981921377,0.0014221305000000001
256.46,177.04,9517.1,0.00010507,1.7852,3.6454,103.59,14.123,35.441,342.08,0.21142,29.022,0.027798,supercritical,Ar,C7440371,argon,150.86,48.9805,13.41,0.07457121551081282,1.6999999999999997,3.61449964781903,0.0014089887000000001
256.46,178.67,9604.5,0.00010412,1.773,3.6333,103.48,14.132,35.532,342.96,0.20913,29.149,0.027941,supercritical,Ar,C7440371,argon,150.86,48.9805,13.41,0.07457121551081282,1.6999999999999997,3.647778197445922,0.0013962492
256.46,180.3,9691.6,0.00010318,1.7608,3.6212,103.37,14.141,35.622,343.84,0.20685,29.277,0.028083,supercritical,Ar,C7440371,argon,150.86,48.9805,13.41,0.07457121551081282,1.6999999999999997,3.681056747072815,0.0013836438000000002
256.46,181.93,9778.4,0.00010227,1.7487,3.6092,103.25,14.15,35.71,344.73,0.20459,29.405,0.028226,supercritical,Ar,C7440371,argon,150.86,48.9805,13.41,0.07457121551081282,1.6999999999999997,3.714335296699707,0.0013714407
256.46,183.56,9864.9,0.00010137,1.7366,3.5974,103.14,14.159,35.795,345.63,0.20234,29.534,0.028368,supercritical,Ar,C7440371,argon,150.86,48.9805,13.41,0.07457121551081282,1.6999999999999997,3.7476138463265993,0.0013593717
256.46,185.19,9951.1,0.00010049,1.7246,3.5856,103.03,14.168,35.879,346.54,0.20011,29.663,0.028511,supercritical,Ar,C7440371,argon,150.86,48.9805,13.41,0.07457121551081282,1.6999999999999997,3.780892395953492,0.0013475709
256.46,186.82,10037.0,9.9632e-05,1.7126,3.574,102.92,14.176,35.961,347.45,0.19789,29.793,0.028654,supercritical,Ar,C7440371,argon,150.86,48.9805,13.41,0.07457121551081282,1.6999999999999997,3.814170945580384,0.0013360651200000002
256.46,188.45,10123.0,9.8789e-05,1.7007,3.5624,102.82,14.185,36.041,348.37,0.19569,29.923,0.028797,supercritical,Ar,C7440371,argon,150.86,48.9805,13.41,0.07457121551081282,1.6999999999999997,3.847449495207276,0.0013247604900000001
256.46,190.08,10208.0,9.7964e-05,1.6889,3.551,102.71,14.193,36.119,349.29,0.19351,30.055,0.028941,supercritical,Ar,C7440371,argon,150.86,48.9805,13.41,0.07457121551081282,1.6999999999999997,3.880728044834169,0.00131369724
256.46,191.71,10293.0,9.7156e-05,1.6771,3.5396,102.6,14.202,36.195,350.22,0.19135,30.186,0.029084,supercritical,Ar,C7440371,argon,150.86,48.9805,13.41,0.07457121551081282,1.6999999999999997,3.9140065944610614,0.00130286196
256.46,193.34,10377.0,9.6363e-05,1.6653,3.5284,102.5,14.21,36.269,351.16,0.1892,30.318,0.029228,supercritical,Ar,C7440371,argon,150.86,48.9805,13.41,0.07457121551081282,1.6999999999999997,3.9472851440879535,0.0012922278300000001
256.46,194.97,10462.0,9.5587e-05,1.6536,3.5173,102.39,14.218,36.342,352.11,0.18706,30.451,0.029371,supercritical,Ar,C7440371,argon,150.86,48.9805,13.41,0.07457121551081282,1.6999999999999997,3.9805636937148456,0.0012818216700000002
256.46,196.6,10546.0,9.4826e-05,1.642,3.5062,102.29,14.226,36.412,353.06,0.18495,30.584,0.029515,supercritical,Ar,C7440371,argon,150.86,48.9805,13.41,0.07457121551081282,1.6999999999999997,4.013842243341738,0.0012716166600000001
256.46,198.23,10629.0,9.408e-05,1.6304,3.4953,102.19,14.234,36.481,354.02,0.18285,30.718,0.029659,supercritical,Ar,C7440371,argon,150.86,48.9805,13.41,0.07457121551081282,1.6999999999999997,4.04712079296863,0.0012616128000000001
256.46,199.86,10713.0,9.3349e-05,1.6188,3.4845,102.08,14.242,36.548,354.98,0.18077,30.853,0.029803,supercritical,Ar,C7440371,argon,150.86,48.9805,13.41,0.07457121551081282,1.6999999999999997,4.080399342595523,0.0012518100900000002
256.46,201.49,10795.0,9.2632e-05,1.6073,3.4738,101.98,14.249,36.613,355.95,0.1787,30.988,0.029947,supercritical,Ar,C7440371,argon,150.86,48.9805,13.41,0.07457121551081282,1.6999999999999997,4.113677892222415,0.0012421951200000001
256.46,203.12,10878.0,9.1929e-05,1.5959,3.4632,101.88,14.257,36.676,356.93,0.17665,31.123,0.030091,supercritical,Ar,C7440371,argon,150.86,48.9805,13.41,0.07457121551081282,1.6999999999999997,4.146956441849308,0.00123276789
256.46,204.75,10960.0,9.1239e-05,1.5845,3.4527,101.78,14.264,36.737,357.91,0.17462,31.259,0.030235,supercritical,Ar,C7440371,argon,150.86,48.9805,13.41,0.07457121551081282,1.6999999999999997,4.180234991476199,0.0012235149900000001
256.46,206.38,11042.0,9.0563e-05,1.5732,3.4422,101.69,14.272,36.796,358.9,0.17261,31.396,0.03038,supercritical,Ar,C7440371,argon,150.86,48.9805,13.41,0.07457121551081282,1.6999999999999997,4.213513541103092,0.00121444983
256.46,208.01,11124.0,8.9899e-05,1.562,3.4319,101.59,14.279,36.854,359.89,0.17061,31.533,0.030524,supercritical,Ar,C7440371,argon,150.86,48.9805,13.41,0.07457121551081282,1.6999999999999997,4.2467920907299845,0.0012055455900000002
256.46,209.64,11205.0,8.9248e-05,1.5507,3.4218,101.49,14.286,36.91,360.89,0.16863,31.67,0.030669,supercritical,Ar,C7440371,argon,150.86,48.9805,13.41,0.07457121551081282,1.6999999999999997,4.280070640356876,0.00119681568
256.46,211.27,11285.0,8.861e-05,1.5396,3.4117,101.4,14.293,36.964,361.89,0.16666,31.808,0.030814,supercritical,Ar,C7440371,argon,150.86,48.9805,13.41,0.07457121551081282,1.6999999999999997,4.31334918998377,0.0011882601
256.46,212.9,11366.0,8.7983e-05,1.5285,3.4017,101.3,14.301,37.016,362.9,0.16472,31.947,0.030958,supercritical,Ar,C7440371,argon,150.86,48.9805,13.41,0.07457121551081282,1.6999999999999997,4.346627739610661,0.0011798520300000002
256.46,214.53,11446.0,8.7368e-05,1.5175,3.3918,101.21,14.307,37.067,363.91,0.16279,32.085,0.031103,supercritical,Ar,C7440371,argon,150.86,48.9805,13.41,0.07457121551081282,1.6999999999999997,4.379906289237554,0.00117160488
256.46,216.16,11525.0,8.6764e-05,1.5065,3.382,101.11,14.314,37.115,364.93,0.16088,32.225,0.031248,supercritical,Ar,C7440371,argon,150.86,48.9805,13.41,0.07457121551081282,1.6999999999999997,4.413184838864446,0.0011635052400000001
256.46,217.79,11605.0,8.6172e-05,1.4956,3.3723,101.02,14.321,37.163,365.95,0.15898,32.365,0.031393,supercritical,Ar,C7440371,argon,150.86,48.9805,13.41,0.07457121551081282,1.6999999999999997,4.446463388491338,0.00115556652
256.46,219.42,11684.0,8.559e-05,1.4847,3.3627,100.93,14.328,37.208,366.98,0.1571,32.505,0.031538,supercritical,Ar,C7440371,argon,150.86,48.9805,13.41,0.07457121551081282,1.6999999999999997,4.479741938118231,0.0011477619
256.46,221.05,11762.0,8.5019e-05,1.4739,3.3533,100.84,14.335,37.252,368.01,0.15524,32.646,0.031683,supercritical,Ar,C7440371,argon,150.86,48.9805,13.41,0.07457121551081282,1.6999999999999997,4.513020487745123,0.00114010479
256.46,222.68,11840.0,8.4458e-05,1.4632,3.3439,100.75,14.341,37.294,369.05,0.1534,32.787,0.031829,supercritical,Ar,C7440371,argon,150.86,48.9805,13.41,0.07457121551081282,1.6999999999999997,4.546299037372016,0.00113258178
256.46,224.31,11918.0,8.3908e-05,1.4525,3.3346,100.66,14.348,37.335,370.09,0.15157,32.928,0.031974,supercritical,Ar,C7440371,argon,150.86,48.9805,13.41,0.07457121551081282,1.6999999999999997,4.579577586998908,0.00112520628
256.46,225.94,11995.0,8.3367e-05,1.4418,3.3254,100.57,14.354,37.374,371.14,0.14976,33.07,0.032119,supercritical,Ar,C7440371,argon,150.86,48.9805,13.41,0.07457121551081282,1.6999999999999997,4.6128561366258,0.0011179514700000001
256.46,227.57,12072.0,8.2835e-05,1.4313,3.3164,100.48,14.36,37.411,372.19,0.14797,33.212,0.032264,supercritical,Ar,C7440371,argon,150.86,48.9805,13.41,0.07457121551081282,1.6999999999999997,4.646134686252692,0.0011108173500000002
256.46,229.2,12149.0,8.2314e-05,1.4208,3.3074,100.39,14.367,37.447,373.24,0.14619,33.354,0.03241,supercritical,Ar,C7440371,argon,150.86,48.9805,13.41,0.07457121551081282,1.6999999999999997,4.679413235879585,0.0011038307400000002
256.46,230.83,12225.0,8.1801e-05,1.4103,3.2985,100.31,14.373,37.482,374.3,0.14443,33.497,0.032555,supercritical,Ar,C7440371,argon,150.86,48.9805,13.41,0.07457121551081282,1.6999999999999997,4.712691785506477,0.0010969514100000002
256.46,232.46,12301.0,8.1297e-05,1.3999,3.2897,100.22,14.379,37.515,375.36,0.14269,33.64,0.0327,supercritical,Ar,C7440371,argon,150.86,48.9805,13.41,0.07457121551081282,1.6999999999999997,4.74597033513337,0.0010901927700000002
256.46,234.09,12376.0,8.0802e-05,1.3896,3.2811,100.13,14.385,37.546,376.42,0.14096,33.784,0.032846,supercritical,Ar,C7440371,argon,150.86,48.9805,13.41,0.07457121551081282,1.6999999999999997,4.779248884760261,0.0010835548200000002
256.46,235.72,12451.0,8.0315e-05,1.3793,3.2725,100.05,14.391,37.576,377.49,0.13925,33.928,0.032991,supercritical,Ar,C7440371,argon,150.86,48.9805,13.41,0.07457121551081282,1.6999999999999997,4.812527434387154,0.0010770241500000003
256.46,237.35,12525.0,7.9837e-05,1.3691,3.264,99.966,14.397,37.605,378.56,0.13755,34.072,0.033136,supercritical,Ar,C7440371,argon,150.86,48.9805,13.41,0.07457121551081282,1.6999999999999997,4.845805984014047,0.00107061417
256.46,238.98,12600.0,7.9367e-05,1.3589,3.2556,99.883,14.403,37.632,379.64,0.13588,34.216,0.033282,supercritical,Ar,C7440371,argon,150.86,48.9805,13.41,0.07457121551081282,1.6999999999999997,4.879084533640938,0.0010643114700000001
256.46,240.61,12673.0,7.8905e-05,1.3488,3.2473,99.8,14.409,37.658,380.72,0.13421,34.36,0.033427,supercritical,Ar,C7440371,argon,150.86,48.9805,13.41,0.07457121551081282,1.6999999999999997,4.912363083267832,0.0010581160500000002
256.46,242.24,12747.0,7.8451e-05,1.3387,3.2391,99.718,14.414,37.683,381.8,0.13257,34.505,0.033572,supercritical,Ar,C7440371,argon,150.86,48.9805,13.41,0.07457121551081282,1.6999999999999997,4.9456416328947235,0.0010520279100000001
256.46,243.87,12820.0,7.8005e-05,1.3288,3.231,99.637,14.42,37.706,382.88,0.13094,34.65,0.033717,supercritical,Ar,C7440371,argon,150.86,48.9805,13.41,0.07457121551081282,1.6999999999999997,4.978920182521616,0.00104604705
256.46,245.5,12892.0,7.7565e-05,1.3188,3.223,99.556,14.426,37.728,383.97,0.12932,34.795,0.033862,supercritical,Ar,C7440371,argon,150.86,48.9805,13.41,0.07457121551081282,1.6999999999999997,5.012198732148508,0.00104014665
256.46,247.13,12965.0,7.7134e-05,1.3089,3.2151,99.476,14.431,37.749,385.06,0.12773,34.94,0.034007,supercritical,Ar,C7440371,argon,150.86,48.9805,13.41,0.07457121551081282,1.6999999999999997,5.0454772817754,0.00103436694
256.46,248.76,13036.0,7.6709e-05,1.2991,3.2073,99.397,14.437,37.768,386.15,0.12614,35.086,0.034152,supercritical,Ar,C7440371,argon,150.86,48.9805,13.41,0.07457121551081282,1.6999999999999997,5.078755831402293,0.00102866769
256.46,250.39,13108.0,7.6291e-05,1.2894,3.1996,99.318,14.442,37.786,387.24,0.12458,35.232,0.034297,supercritical,Ar,C7440371,argon,150.86,48.9805,13.41,0.07457121551081282,1.6999999999999997,5.112034381029185,0.0010230623100000002
256.46,252.02,13179.0,7.588e-05,1.2797,3.192,99.24,14.448,37.803,388.34,0.12302,35.377,0.034442,supercritical,Ar,C7440371,argon,150.86,48.9805,13.41,0.07457121551081282,1.6999999999999997,5.145312930656078,0.0010175508000000002
256.46,253.65,13249.0,7.5476e-05,1.27,3.1845,99.163,14.453,37.819,389.44,0.12149,35.523,0.034587,supercritical,Ar,C7440371,argon,150.86,48.9805,13.41,0.07457121551081282,1.6999999999999997,5.17859148028297,0.00101213316
256.46,255.28,13319.0,7.5078e-05,1.2604,3.177,99.086,14.459,37.834,390.54,0.11997,35.669,0.034731,supercritical,Ar,C7440371,argon,150.86,48.9805,13.41,0.07457121551081282,1.6999999999999997,5.211870029909862,0.0010067959800000002
256.46,256.91,13389.0,7.4687e-05,1.2509,3.1697,99.01,14.464,37.847,391.65,0.11846,35.815,0.034876,supercritical,Ar,C7440371,argon,150.86,48.9805,13.41,0.07457121551081282,1.6999999999999997,5.245148579536755,0.00100155267
256.46,258.54,13459.0,7.4301e-05,1.2414,3.1624,98.934,14.469,37.86,392.75,0.11697,35.961,0.03502,supercritical,Ar,C7440371,argon,150.86,48.9805,13.41,0.07457121551081282,1.6999999999999997,5.2784271291636475,0.00099637641
256.46,260.17,13528.0,7.3922e-05,1.232,3.1552,98.859,14.474,37.871,393.86,0.11549,36.107,0.035164,supercritical,Ar,C7440371,argon,150.86,48.9805,13.41,0.07457121551081282,1.6999999999999997,5.311705678790539,0.0009912940200000001
256.46,261.8,13596.0,7.3549e-05,1.2226,3.1481,98.784,14.48,37.882,394.97,0.11403,36.253,0.035308,supercritical,Ar,C7440371,argon,150.86,48.9805,13.41,0.07457121551081282,1.6999999999999997,5.344984228417432,0.00098629209
256.46,263.43,13665.0,7.3182e-05,1.2133,3.1411,98.71,14.485,37.891,396.08,0.11258,36.399,0.035452,supercritical,Ar,C7440371,argon,150.86,48.9805,13.41,0.07457121551081282,1.6999999999999997,5.378262778044324,0.0009813706200000002
256.46,265.06,13732.0,7.282e-05,1.204,3.1342,98.637,14.49,37.899,397.19,0.11115,36.545,0.035596,supercritical,Ar,C7440371,argon,150.86,48.9805,13.41,0.07457121551081282,1.6999999999999997,5.411541327671216,0.0009765162
256.46,266.69,13800.0,7.2464e-05,1.1948,3.1274,98.564,14.495,37.907,398.31,0.10973,36.691,0.035739,supercritical,Ar,C7440371,argon,150.86,48.9805,13.41,0.07457121551081282,1.6999999999999997,5.444819877298109,0.0009717422400000002
256.46,268.32,13867.0,7.2114e-05,1.1857,3.1207,98.492,14.5,37.913,399.42,0.10833,36.838,0.035882,supercritical,Ar,C7440371,argon,150.86,48.9805,13.41,0.07457121551081282,1.6999999999999997,5.478098426925,0.00096704874
256.46,269.95,13934.0,7.1769e-05,1.1766,3.114,98.42,14.505,37.918,400.54,0.10694,36.984,0.036026,supercritical,Ar,C7440371,argon,150.86,48.9805,13.41,0.07457121551081282,1.6999999999999997,5.511376976551893,0.00096242229
256.46,271.58,14000.0,7.1429e-05,1.1676,3.1074,98.349,14.51,37.923,401.66,0.10556,37.13,0.036169,supercritical,Ar,C7440371,argon,150.86,48.9805,13.41,0.07457121551081282,1.6999999999999997,5.5446555261787855,0.0009578628900000001
256.46,273.21,14066.0,7.1094e-05,1.1586,3.101,98.279,14.515,37.926,402.78,0.1042,37.275,0.036311,supercritical,Ar,C7440371,argon,150.86,48.9805,13.41,0.07457121551081282,1.6999999999999997,5.577934075805677,0.00095337054
256.46,274.84,14131.0,7.0765e-05,1.1497,3.0946,98.209,14.52,37.929,403.9,0.10285,37.421,0.036454,supercritical,Ar,C7440371,argon,150.86,48.9805,13.41,0.07457121551081282,1.6999999999999997,5.61121262543257,0.0009489586500000002
256.46,276.47,14196.0,7.044e-05,1.1408,3.0882,98.139,14.525,37.931,405.02,0.10152,37.567,0.036596,supercritical,Ar,C7440371,argon,150.86,48.9805,13.41,0.07457121551081282,1.6999999999999997,5.644491175059463,0.0009446004
256.46,278.1,14261.0,7.012e-05,1.132,3.082,98.07,14.529,37.932,406.15,0.1002,37.713,0.036738,supercritical,Ar,C7440371,argon,150.86,48.9805,13.41,0.07457121551081282,1.6999999999999997,5.677769724686355,0.0009403092000000001
256.46,279.73,14326.0,6.9805e-05,1.1232,3.0759,98.002,14.534,37.932,407.27,0.09889,37.858,0.03688,supercritical,Ar,C7440371,argon,150.86,48.9805,13.41,0.07457121551081282,1.6999999999999997,5.711048274313248,0.0009360850500000001
256.46,281.36,14390.0,6.9494e-05,1.1145,3.0698,97.934,14.539,37.932,408.4,0.097596,38.004,0.037021,supercritical,Ar,C7440371,argon,150.86,48.9805,13.41,0.07457121551081282,1.6999999999999997,5.74432682394014,0.0009319145400000001
256.46,282.99,14453.0,6.9188e-05,1.1058,3.0638,97.866,14.544,37.93,409.52,0.096315,38.149,0.037163,supercritical,Ar,C7440371,argon,150.86,48.9805,13.41,0.07457121551081282,1.6999999999999997,5.777605373567032,0.0009278110800000001