Temperature (K),Pressure (bar),Density (mol/m3),Volume (m3/mol),Internal Energy (kJ/mol),Enthalpy (kJ/mol),Entropy (J/mol*K),Cv (J/mol*K),Cp (J/mol*K),Sound Spd. (m/s),Joule-Thomson (K/bar),Viscosity (uPa*s),Therm. Cond. (W/m*K),Phase,substance,substance_id,substance_name,Tc,Pc,rhoc,Vmc,Tr,Pr,Vmr
216.41,390.02,22334.0,4.4775e-05,1.0915,2.8379,134.61,24.261,50.227,532.02,0.011885,51.248,0.07053,supercritical,O2,C7782447,oxygen,154.58,50.43,13.6,0.07352941176470588,1.4,7.733888558397779,0.00060894
216.41,391.39,22365.0,4.4713e-05,1.0871,2.8371,134.58,24.265,50.185,533.09,0.011537,51.361,0.070664,supercritical,O2,C7782447,oxygen,154.58,50.43,13.6,0.07352941176470588,1.4,7.761054927622447,0.0006080968
216.41,392.75,22396.0,4.4651e-05,1.0826,2.8363,134.55,24.269,50.143,534.16,0.011193,51.473,0.070799,supercritical,O2,C7782447,oxygen,154.58,50.43,13.6,0.07352941176470588,1.4,7.788023002181242,0.0006072536000000001
216.41,394.12,22427.0,4.459e-05,1.0782,2.8355,134.52,24.273,50.102,535.22,0.010851,51.586,0.070933,supercritical,O2,C7782447,oxygen,154.58,50.43,13.6,0.07352941176470588,1.4,7.81518937140591,0.0006064239999999999
216.41,395.49,22457.0,4.4529e-05,1.0738,2.8348,134.48,24.276,50.061,536.28,0.010513,51.698,0.071067,supercritical,O2,C7782447,oxygen,154.58,50.43,13.6,0.07352941176470588,1.4,7.842355740630577,0.0006055944
216.41,396.85,22488.0,4.4468e-05,1.0694,2.8341,134.45,24.28,50.02,537.34,0.010178,51.81,0.0712,supercritical,O2,C7782447,oxygen,154.58,50.43,13.6,0.07352941176470588,1.4,7.869323815189372,0.0006047648
216.41,398.21,22518.0,4.4408e-05,1.065,2.8334,134.42,24.284,49.979,538.39,0.0098455,51.922,0.071334,supercritical,O2,C7782447,oxygen,154.58,50.43,13.6,0.07352941176470588,1.4,7.8962918897481655,0.0006039487999999999
216.41,399.58,22549.0,4.4349e-05,1.0607,2.8328,134.39,24.288,49.939,539.45,0.0095163,52.033,0.071467,supercritical,O2,C7782447,oxygen,154.58,50.43,13.6,0.07352941176470588,1.4,7.9234582589728335,0.0006031464
216.41,400.94,22579.0,4.429e-05,1.0563,2.8321,134.36,24.291,49.899,540.5,0.00919,52.145,0.0716,supercritical,O2,C7782447,oxygen,154.58,50.43,13.6,0.07352941176470588,1.4,7.950426333531628,0.000602344
216.41,402.31,22609.0,4.4231e-05,1.052,2.8315,134.33,24.295,49.86,541.54,0.0088667,52.256,0.071733,supercritical,O2,C7782447,oxygen,154.58,50.43,13.6,0.07352941176470588,1.4,7.977592702756296,0.0006015415999999999
216.41,403.68,22638.0,4.4173e-05,1.0478,2.8309,134.3,24.299,49.82,542.59,0.0085462,52.367,0.071865,supercritical,O2,C7782447,oxygen,154.58,50.43,13.6,0.07352941176470588,1.4,8.004759071980963,0.0006007527999999999
216.41,405.04,22668.0,4.4115e-05,1.0435,2.8303,134.27,24.303,49.781,543.63,0.0082286,52.478,0.071998,supercritical,O2,C7782447,oxygen,154.58,50.43,13.6,0.07352941176470588,1.4,8.031727146539758,0.000599964
216.41,406.4,22697.0,4.4058e-05,1.0393,2.8298,134.24,24.307,49.742,544.67,0.0079138,52.589,0.07213,supercritical,O2,C7782447,oxygen,154.58,50.43,13.6,0.07352941176470588,1.4,8.058695221098551,0.0005991887999999999
216.41,407.77,22727.0,4.4001e-05,1.035,2.8293,134.21,24.31,49.704,545.7,0.0076017,52.7,0.072262,supercritical,O2,C7782447,oxygen,154.58,50.43,13.6,0.07352941176470588,1.4,8.08586159032322,0.0005984136
216.41,409.13,22756.0,4.3944e-05,1.0308,2.8288,134.18,24.314,49.666,546.74,0.0072924,52.811,0.072394,supercritical,O2,C7782447,oxygen,154.58,50.43,13.6,0.07352941176470588,1.4,8.112829664882014,0.0005976384
216.41,410.5,22785.0,4.3888e-05,1.0267,2.8283,134.15,24.318,49.628,547.77,0.0069858,52.921,0.072525,supercritical,O2,C7782447,oxygen,154.58,50.43,13.6,0.07352941176470588,1.4,8.139996034106682,0.0005968767999999999
216.41,411.87,22814.0,4.3833e-05,1.0225,2.8278,134.12,24.322,49.59,548.79,0.0066819,53.031,0.072656,supercritical,O2,C7782447,oxygen,154.58,50.43,13.6,0.07352941176470588,1.4,8.16716240333135,0.0005961288
216.41,413.23,22843.0,4.3777e-05,1.0184,2.8274,134.09,24.326,49.552,549.82,0.0063806,53.141,0.072788,supercritical,O2,C7782447,oxygen,154.58,50.43,13.6,0.07352941176470588,1.4,8.194130477890145,0.0005953671999999999
216.41,414.6,22872.0,4.3722e-05,1.0142,2.827,134.06,24.329,49.515,550.84,0.0060819,53.251,0.072919,supercritical,O2,C7782447,oxygen,154.58,50.43,13.6,0.07352941176470588,1.4,8.221296847114813,0.0005946192
216.41,415.96,22900.0,4.3668e-05,1.0101,2.8266,134.03,24.333,49.478,551.86,0.0057857,53.361,0.073049,supercritical,O2,C7782447,oxygen,154.58,50.43,13.6,0.07352941176470588,1.4,8.248264921673607,0.0005938848
216.41,417.32,22929.0,4.3614e-05,1.0061,2.8262,134.0,24.337,49.442,552.88,0.0054921,53.47,0.07318,supercritical,O2,C7782447,oxygen,154.58,50.43,13.6,0.07352941176470588,1.4,8.2752329962324,0.0005931504
216.41,418.69,22957.0,4.356e-05,1.002,2.8258,133.97,24.341,49.405,553.89,0.005201,53.58,0.07331,supercritical,O2,C7782447,oxygen,154.58,50.43,13.6,0.07352941176470588,1.4,8.302399365457068,0.000592416
216.41,420.06,22985.0,4.3507e-05,0.99795,2.8255,133.94,24.345,49.369,554.91,0.0049124,53.689,0.07344,supercritical,O2,C7782447,oxygen,154.58,50.43,13.6,0.07352941176470588,1.4,8.329565734681736,0.0005916952
216.41,421.42,23013.0,4.3454e-05,0.99392,2.8251,133.91,24.349,49.333,555.92,0.0046263,53.798,0.07357,supercritical,O2,C7782447,oxygen,154.58,50.43,13.6,0.07352941176470588,1.4,8.356533809240531,0.0005909744
216.41,422.79,23041.0,4.3401e-05,0.98991,2.8248,133.88,24.352,49.297,556.92,0.0043425,53.907,0.0737,supercritical,O2,C7782447,oxygen,154.58,50.43,13.6,0.07352941176470588,1.4,8.3837001784652,0.0005902536
216.41,424.15,23069.0,4.3349e-05,0.98592,2.8246,133.86,24.356,49.262,557.93,0.0040612,54.016,0.07383,supercritical,O2,C7782447,oxygen,154.58,50.43,13.6,0.07352941176470588,1.4,8.410668253023994,0.0005895464
216.41,425.51,23096.0,4.3297e-05,0.98195,2.8243,133.83,24.36,49.226,558.93,0.0037822,54.125,0.073959,supercritical,O2,C7782447,oxygen,154.58,50.43,13.6,0.07352941176470588,1.4,8.437636327582787,0.0005888392
216.41,426.88,23124.0,4.3245e-05,0.978,2.8241,133.8,24.364,49.191,559.93,0.0035055,54.233,0.074088,supercritical,O2,C7782447,oxygen,154.58,50.43,13.6,0.07352941176470588,1.4,8.464802696807455,0.0005881319999999999
216.41,428.25,23151.0,4.3194e-05,0.97406,2.8238,133.77,24.368,49.157,560.92,0.0032311,54.342,0.074217,supercritical,O2,C7782447,oxygen,154.58,50.43,13.6,0.07352941176470588,1.4,8.491969066032123,0.0005874383999999999
216.41,429.61,23179.0,4.3143e-05,0.97014,2.8236,133.74,24.372,49.122,561.92,0.0029591,54.45,0.074346,supercritical,O2,C7782447,oxygen,154.58,50.43,13.6,0.07352941176470588,1.4,8.518937140590918,0.0005867447999999999
216.41,430.98,23206.0,4.3093e-05,0.96624,2.8234,133.71,24.375,49.088,562.91,0.0026892,54.558,0.074475,supercritical,O2,C7782447,oxygen,154.58,50.43,13.6,0.07352941176470588,1.4,8.546103509815586,0.0005860648
216.41,432.34,23233.0,4.3043e-05,0.96236,2.8233,133.69,24.379,49.054,563.9,0.0024216,54.666,0.074603,supercritical,O2,C7782447,oxygen,154.58,50.43,13.6,0.07352941176470588,1.4,8.57307158437438,0.0005853848
216.41,433.7,23260.0,4.2993e-05,0.95849,2.8231,133.66,24.383,49.02,564.89,0.0021562,54.774,0.074731,supercritical,O2,C7782447,oxygen,154.58,50.43,13.6,0.07352941176470588,1.4,8.600039658933175,0.0005847048
216.41,435.07,23287.0,4.2943e-05,0.95464,2.823,133.63,24.387,48.986,565.87,0.001893,54.882,0.07486,supercritical,O2,C7782447,oxygen,154.58,50.43,13.6,0.07352941176470588,1.4,8.627206028157843,0.0005840248
216.41,436.44,23313.0,4.2894e-05,0.95081,2.8229,133.6,24.391,48.953,566.85,0.0016319,54.989,0.074987,supercritical,O2,C7782447,oxygen,154.58,50.43,13.6,0.07352941176470588,1.4,8.654372397382511,0.0005833584
216.41,437.8,23340.0,4.2845e-05,0.94699,2.8228,133.58,24.395,48.92,567.83,0.0013729,55.097,0.075115,supercritical,O2,C7782447,oxygen,154.58,50.43,13.6,0.07352941176470588,1.4,8.681340471941304,0.000582692
216.41,439.17,23366.0,4.2797e-05,0.94319,2.8227,133.55,24.398,48.887,568.81,0.001116,55.204,0.075243,supercritical,O2,C7782447,oxygen,154.58,50.43,13.6,0.07352941176470588,1.4,8.708506841165972,0.0005820392
216.41,440.53,23393.0,4.2748e-05,0.93941,2.8226,133.52,24.402,48.854,569.78,0.00086125,55.311,0.07537,supercritical,O2,C7782447,oxygen,154.58,50.43,13.6,0.07352941176470588,1.4,8.735474915724767,0.0005813728
216.41,441.89,23419.0,4.2701e-05,0.93564,2.8226,133.49,24.406,48.821,570.76,0.0006085,55.418,0.075497,supercritical,O2,C7782447,oxygen,154.58,50.43,13.6,0.07352941176470588,1.4,8.762442990283562,0.0005807336
216.41,443.26,23445.0,4.2653e-05,0.93189,2.8225,133.47,24.41,48.789,571.73,0.00035777,55.525,0.075624,supercritical,O2,C7782447,oxygen,154.58,50.43,13.6,0.07352941176470588,1.4,8.78960935950823,0.0005800808
216.41,444.62,23471.0,4.2606e-05,0.92816,2.8225,133.44,24.414,48.757,572.7,0.00010905,55.632,0.075751,supercritical,O2,C7782447,oxygen,154.58,50.43,13.6,0.07352941176470588,1.4,8.816577434067023,0.0005794416
216.41,445.99,23497.0,4.2559e-05,0.92444,2.8225,133.41,24.418,48.725,573.66,-0.00013769,55.739,0.075878,supercritical,O2,C7782447,oxygen,154.58,50.43,13.6,0.07352941176470588,1.4,8.84374380329169,0.0005788023999999999
216.41,447.36,23523.0,4.2512e-05,0.92073,2.8225,133.39,24.421,48.693,574.62,-0.00038247,55.845,0.076004,supercritical,O2,C7782447,oxygen,154.58,50.43,13.6,0.07352941176470588,1.4,8.870910172516359,0.0005781632
216.41,448.72,23549.0,4.2466e-05,0.91705,2.8226,133.36,24.425,48.662,575.59,-0.00062532,55.952,0.076131,supercritical,O2,C7782447,oxygen,154.58,50.43,13.6,0.07352941176470588,1.4,8.897878247075154,0.0005775376
216.41,450.08,23574.0,4.2419e-05,0.91338,2.8226,133.33,24.429,48.631,576.54,-0.00086625,56.058,0.076257,supercritical,O2,C7782447,oxygen,154.58,50.43,13.6,0.07352941176470588,1.4,8.924846321633948,0.0005768984
216.41,451.45,23600.0,4.2374e-05,0.90972,2.8227,133.31,24.433,48.6,577.5,-0.0011053,56.164,0.076383,supercritical,O2,C7782447,oxygen,154.58,50.43,13.6,0.07352941176470588,1.4,8.952012690858616,0.0005762864
216.41,452.81,23625.0,4.2328e-05,0.90608,2.8228,133.28,24.437,48.569,578.45,-0.0013425,56.27,0.076509,supercritical,O2,C7782447,oxygen,154.58,50.43,13.6,0.07352941176470588,1.4,8.978980765417411,0.0005756607999999999
216.41,454.18,23650.0,4.2283e-05,0.90245,2.8229,133.25,24.441,48.538,579.41,-0.0015778,56.376,0.076634,supercritical,O2,C7782447,oxygen,154.58,50.43,13.6,0.07352941176470588,1.4,9.00614713464208,0.0005750488
216.41,455.55,23675.0,4.2238e-05,0.89884,2.823,133.23,24.444,48.507,580.36,-0.0018113,56.482,0.07676,supercritical,O2,C7782447,oxygen,154.58,50.43,13.6,0.07352941176470588,1.4,9.033313503866747,0.0005744368
216.41,456.91,23701.0,4.2193e-05,0.89525,2.8231,133.2,24.448,48.477,581.3,-0.002043,56.588,0.076885,supercritical,O2,C7782447,oxygen,154.58,50.43,13.6,0.07352941176470588,1.4,9.06028157842554,0.0005738248
216.41,458.27,23726.0,4.2149e-05,0.89167,2.8232,133.18,24.452,48.447,582.25,-0.0022728,56.694,0.07701,supercritical,O2,C7782447,oxygen,154.58,50.43,13.6,0.07352941176470588,1.4,9.087249652984335,0.0005732264
216.41,459.64,23750.0,4.2105e-05,0.8881,2.8234,133.15,24.456,48.417,583.19,-0.002501,56.799,0.077136,supercritical,O2,C7782447,oxygen,154.58,50.43,13.6,0.07352941176470588,1.4,9.114416022209003,0.0005726279999999999
216.41,461.0,23775.0,4.2061e-05,0.88455,2.8236,133.12,24.46,48.387,584.13,-0.0027273,56.904,0.07726,supercritical,O2,C7782447,oxygen,154.58,50.43,13.6,0.07352941176470588,1.4,9.141384096767798,0.0005720296
216.41,462.37,23800.0,4.2017e-05,0.88101,2.8238,133.1,24.463,48.358,585.07,-0.002952,57.01,0.077385,supercritical,O2,C7782447,oxygen,154.58,50.43,13.6,0.07352941176470588,1.4,9.168550465992466,0.0005714312
216.41,463.74,23824.0,4.1974e-05,0.87749,2.824,133.07,24.467,48.329,586.01,-0.0031749,57.115,0.07751,supercritical,O2,C7782447,oxygen,154.58,50.43,13.6,0.07352941176470588,1.4,9.195716835217134,0.0005708464
216.41,465.1,23849.0,4.1931e-05,0.87398,2.8242,133.05,24.471,48.299,586.94,-0.0033961,57.22,0.077634,supercritical,O2,C7782447,oxygen,154.58,50.43,13.6,0.07352941176470588,1.4,9.222684909775927,0.0005702616000000001
216.41,466.46,23873.0,4.1888e-05,0.87049,2.8244,133.02,24.475,48.27,587.87,-0.0036157,57.325,0.077758,supercritical,O2,C7782447,oxygen,154.58,50.43,13.6,0.07352941176470588,1.4,9.249652984334721,0.0005696768
216.41,467.83,23898.0,4.1845e-05,0.86701,2.8246,133.0,24.479,48.242,588.8,-0.0038336,57.43,0.077882,supercritical,O2,C7782447,oxygen,154.58,50.43,13.6,0.07352941176470588,1.4,9.27681935355939,0.0005690919999999999
216.41,469.19,23922.0,4.1803e-05,0.86354,2.8249,132.97,24.483,48.213,589.73,-0.0040499,57.534,0.078006,supercritical,O2,C7782447,oxygen,154.58,50.43,13.6,0.07352941176470588,1.4,9.303787428118184,0.0005685207999999999
216.41,470.56,23946.0,4.1761e-05,0.86009,2.8252,132.95,24.486,48.185,590.66,-0.0042645,57.639,0.07813,supercritical,O2,C7782447,oxygen,154.58,50.43,13.6,0.07352941176470588,1.4,9.330953797342852,0.0005679496
216.41,471.93,23970.0,4.1719e-05,0.85665,2.8255,132.92,24.49,48.156,591.58,-0.0044775,57.743,0.078253,supercritical,O2,C7782447,oxygen,154.58,50.43,13.6,0.07352941176470588,1.4,9.35812016656752,0.0005673783999999999
216.41,473.29,23994.0,4.1677e-05,0.85323,2.8258,132.9,24.494,48.128,592.5,-0.004689,57.848,0.078377,supercritical,O2,C7782447,oxygen,154.58,50.43,13.6,0.07352941176470588,1.4,9.385088241126315,0.0005668072
216.41,474.65,24018.0,4.1636e-05,0.84981,2.8261,132.87,24.498,48.1,593.42,-0.0048989,57.952,0.0785,supercritical,O2,C7782447,oxygen,154.58,50.43,13.6,0.07352941176470588,1.4,9.412056315685108,0.0005662496
216.41,476.02,24041.0,4.1595e-05,0.84642,2.8264,132.85,24.502,48.073,594.34,-0.0051072,58.056,0.078623,supercritical,O2,C7782447,oxygen,154.58,50.43,13.6,0.07352941176470588,1.4,9.439222684909776,0.0005656919999999999
216.41,477.38,24065.0,4.1554e-05,0.84303,2.8268,132.82,24.505,48.045,595.25,-0.005314,58.16,0.078746,supercritical,O2,C7782447,oxygen,154.58,50.43,13.6,0.07352941176470588,1.4,9.46619075946857,0.0005651344
216.41,478.75,24089.0,4.1513e-05,0.83966,2.8271,132.8,24.509,48.018,596.17,-0.0055192,58.264,0.078869,supercritical,O2,C7782447,oxygen,154.58,50.43,13.6,0.07352941176470588,1.4,9.493357128693239,0.0005645768
216.41,480.12,24112.0,4.1473e-05,0.8363,2.8275,132.77,24.513,47.99,597.08,-0.005723,58.368,0.078992,supercritical,O2,C7782447,oxygen,154.58,50.43,13.6,0.07352941176470588,1.4,9.520523497917907,0.0005640328
216.41,481.48,24136.0,4.1433e-05,0.83296,2.8279,132.75,24.517,47.963,597.99,-0.0059253,58.472,0.079114,supercritical,O2,C7782447,oxygen,154.58,50.43,13.6,0.07352941176470588,1.4,9.547491572476702,0.0005634888
216.41,482.85,24159.0,4.1393e-05,0.82963,2.8283,132.72,24.521,47.936,598.9,-0.0061261,58.575,0.079236,supercritical,O2,C7782447,oxygen,154.58,50.43,13.6,0.07352941176470588,1.4,9.57465794170137,0.0005629448
216.41,484.21,24182.0,4.1353e-05,0.82631,2.8287,132.7,24.524,47.91,599.8,-0.0063254,58.679,0.079359,supercritical,O2,C7782447,oxygen,154.58,50.43,13.6,0.07352941176470588,1.4,9.601626016260163,0.0005624008
216.41,485.57,24205.0,4.1314e-05,0.823,2.8291,132.68,24.528,47.883,600.71,-0.0065233,58.782,0.079481,supercritical,O2,C7782447,oxygen,154.58,50.43,13.6,0.07352941176470588,1.4,9.628594090818957,0.0005618703999999999
216.41,486.94,24228.0,4.1274e-05,0.81971,2.8295,132.65,24.532,47.857,601.61,-0.0067198,58.885,0.079603,supercritical,O2,C7782447,oxygen,154.58,50.43,13.6,0.07352941176470588,1.4,9.655760460043625,0.0005613263999999999
216.41,488.31,24251.0,4.1235e-05,0.81642,2.83,132.63,24.536,47.83,602.51,-0.0069148,58.989,0.079724,supercritical,O2,C7782447,oxygen,154.58,50.43,13.6,0.07352941176470588,1.4,9.682926829268293,0.000560796
216.41,489.67,24274.0,4.1196e-05,0.81315,2.8304,132.6,24.54,47.804,603.4,-0.0071084,59.092,0.079846,supercritical,O2,C7782447,oxygen,154.58,50.43,13.6,0.07352941176470588,1.4,9.709894903827088,0.0005602656
216.41,491.04,24297.0,4.1158e-05,0.8099,2.8309,132.58,24.543,47.778,604.3,-0.0073007,59.195,0.079967,supercritical,O2,C7782447,oxygen,154.58,50.43,13.6,0.07352941176470588,1.4,9.737061273051756,0.0005597488
216.41,492.4,24319.0,4.1119e-05,0.80665,2.8314,132.56,24.547,47.752,605.19,-0.0074916,59.298,0.080089,supercritical,O2,C7782447,oxygen,154.58,50.43,13.6,0.07352941176470588,1.4,9.764029347610549,0.0005592183999999999
216.41,493.76,24342.0,4.1081e-05,0.80342,2.8319,132.53,24.551,47.727,606.09,-0.0076811,59.401,0.08021,supercritical,O2,C7782447,oxygen,154.58,50.43,13.6,0.07352941176470588,1.4,9.790997422169344,0.0005587016
216.41,495.13,24365.0,4.1043e-05,0.8002,2.8324,132.51,24.555,47.701,606.97,-0.0078693,59.503,0.080331,supercritical,O2,C7782447,oxygen,154.58,50.43,13.6,0.07352941176470588,1.4,9.818163791394012,0.0005581847999999999
216.41,496.5,24387.0,4.1005e-05,0.79699,2.8329,132.49,24.559,47.676,607.86,-0.0080562,59.606,0.080452,supercritical,O2,C7782447,oxygen,154.58,50.43,13.6,0.07352941176470588,1.4,9.84533016061868,0.000557668
216.41,497.86,24409.0,4.0968e-05,0.7938,2.8334,132.46,24.562,47.651,608.75,-0.0082417,59.709,0.080573,supercritical,O2,C7782447,oxygen,154.58,50.43,13.6,0.07352941176470588,1.4,9.872298235177475,0.0005571647999999999
216.41,499.23,24432.0,4.093e-05,0.79061,2.834,132.44,24.566,47.626,609.63,-0.008426,59.811,0.080693,supercritical,O2,C7782447,oxygen,154.58,50.43,13.6,0.07352941176470588,1.4,9.899464604402143,0.000556648
216.41,500.59,24454.0,4.0893e-05,0.78744,2.8345,132.42,24.57,47.601,610.52,-0.0086089,59.913,0.080814,supercritical,O2,C7782447,oxygen,154.58,50.43,13.6,0.07352941176470588,1.4,9.926432678960936,0.0005561448
216.41,501.95,24476.0,4.0856e-05,0.78428,2.8351,132.39,24.574,47.576,611.4,-0.0087906,60.016,0.080934,supercritical,O2,C7782447,oxygen,154.58,50.43,13.6,0.07352941176470588,1.4,9.95340075351973,0.0005556416
216.41,503.32,24498.0,4.0819e-05,0.78113,2.8357,132.37,24.577,47.552,612.27,-0.008971,60.118,0.081054,supercritical,O2,C7782447,oxygen,154.58,50.43,13.6,0.07352941176470588,1.4,9.980567122744398,0.0005551384
216.41,504.69,24520.0,4.0783e-05,0.77799,2.8362,132.35,24.581,47.527,613.15,-0.0091502,60.22,0.081174,supercritical,O2,C7782447,oxygen,154.58,50.43,13.6,0.07352941176470588,1.4,10.007733491969066,0.0005546488
216.41,506.05,24542.0,4.0746e-05,0.77487,2.8368,132.32,24.585,47.503,614.03,-0.0093281,60.322,0.081294,supercritical,O2,C7782447,oxygen,154.58,50.43,13.6,0.07352941176470588,1.4,10.034701566527861,0.0005541456
216.41,507.42,24564.0,4.071e-05,0.77175,2.8375,132.3,24.589,47.479,614.9,-0.0095048,60.424,0.081414,supercritical,O2,C7782447,oxygen,154.58,50.43,13.6,0.07352941176470588,1.4,10.06186793575253,0.000553656
216.41,508.78,24586.0,4.0674e-05,0.76865,2.8381,132.28,24.592,47.455,615.77,-0.0096802,60.526,0.081533,supercritical,O2,C7782447,oxygen,154.58,50.43,13.6,0.07352941176470588,1.4,10.088836010311322,0.0005531663999999999
216.41,510.14,24607.0,4.0638e-05,0.76556,2.8387,132.26,24.596,47.431,616.64,-0.0098545,60.627,0.081653,supercritical,O2,C7782447,oxygen,154.58,50.43,13.6,0.07352941176470588,1.4,10.115804084870117,0.0005526767999999999
216.41,511.51,24629.0,4.0603e-05,0.76248,2.8394,132.23,24.6,47.407,617.51,-0.010028,60.729,0.081772,supercritical,O2,C7782447,oxygen,154.58,50.43,13.6,0.07352941176470588,1.4,10.142970454094785,0.0005522007999999999
216.41,512.88,24650.0,4.0567e-05,0.75941,2.84,132.21,24.604,47.383,618.37,-0.010199,60.831,0.081891,supercritical,O2,C7782447,oxygen,154.58,50.43,13.6,0.07352941176470588,1.4,10.170136823319453,0.0005517111999999999
216.41,514.24,24672.0,4.0532e-05,0.75635,2.8407,132.19,24.607,47.36,619.24,-0.01037,60.932,0.08201,supercritical,O2,C7782447,oxygen,154.58,50.43,13.6,0.07352941176470588,1.4,10.197104897878248,0.0005512351999999999
216.41,515.61,24693.0,4.0497e-05,0.7533,2.8413,132.17,24.611,47.336,620.1,-0.01054,61.033,0.082129,supercritical,O2,C7782447,oxygen,154.58,50.43,13.6,0.07352941176470588,1.4,10.224271267102916,0.0005507592
216.41,516.97,24714.0,4.0462e-05,0.75026,2.842,132.14,24.615,47.313,620.96,-0.010708,61.135,0.082248,supercritical,O2,C7782447,oxygen,154.58,50.43,13.6,0.07352941176470588,1.4,10.25123934166171,0.0005502832