Temperature (K),Pressure (bar),Density (mol/m3),Volume (m3/mol),Internal Energy (kJ/mol),Enthalpy (kJ/mol),Entropy (J/mol*K),Cv (J/mol*K),Cp (J/mol*K),Sound Spd. (m/s),Joule-Thomson (K/bar),Viscosity (uPa*s),Therm. Cond. (W/m*K),Phase,substance,substance_id,substance_name,Tc,Pc,rhoc,Vmc,Tr,Pr,Vmr
1358.7,2244.2,18529.0,5.3969e-05,68.449,80.561,113.55,42.501,60.47,1096.1,0.023813,,,supercritical,H2O,C7732185,water,647.0,220.64,17.9,0.0558659217877095,2.1,10.171319796954315,0.0009660450999999999
1358.7,2251.6,18577.0,5.3829e-05,68.431,80.551,113.51,42.511,60.488,1097.3,0.023651,,,supercritical,H2O,C7732185,water,647.0,220.64,17.9,0.0558659217877095,2.1,10.204858593183467,0.0009635390999999999
1358.7,2258.9,18625.0,5.369e-05,68.412,80.54,113.47,42.522,60.505,1098.4,0.02349,,,supercritical,H2O,C7732185,water,647.0,220.64,17.9,0.0558659217877095,2.1,10.23794416243655,0.000961051
1358.7,2266.3,18673.0,5.3552e-05,68.394,80.53,113.44,42.532,60.523,1099.6,0.023329,,,supercritical,H2O,C7732185,water,647.0,220.64,17.9,0.0558659217877095,2.1,10.2714829586657,0.0009585808
1358.7,2273.6,18721.0,5.3415e-05,68.375,80.52,113.4,42.542,60.54,1100.8,0.023169,,,supercritical,H2O,C7732185,water,647.0,220.64,17.9,0.0558659217877095,2.1,10.304568527918782,0.0009561284999999999
1358.7,2281.0,18769.0,5.3279e-05,68.357,80.509,113.36,42.552,60.557,1102.0,0.023009,,,supercritical,H2O,C7732185,water,647.0,220.64,17.9,0.0558659217877095,2.1,10.338107324147934,0.0009536941
1358.7,2288.3,18817.0,5.3143e-05,68.338,80.499,113.33,42.562,60.574,1103.1,0.02285,,,supercritical,H2O,C7732185,water,647.0,220.64,17.9,0.0558659217877095,2.1,10.371192893401016,0.0009512597
1358.7,2295.7,18865.0,5.3009e-05,68.32,80.489,113.29,42.572,60.591,1104.3,0.022692,,,supercritical,H2O,C7732185,water,647.0,220.64,17.9,0.0558659217877095,2.1,10.404731689630166,0.0009488611
1358.7,2303.0,18912.0,5.2876e-05,68.301,80.479,113.26,42.582,60.608,1105.5,0.022535,,,supercritical,H2O,C7732185,water,647.0,220.64,17.9,0.0558659217877095,2.1,10.43781725888325,0.0009464803999999999
1358.7,2310.4,18960.0,5.2744e-05,68.283,80.469,113.22,42.592,60.625,1106.7,0.022378,,,supercritical,H2O,C7732185,water,647.0,220.64,17.9,0.0558659217877095,2.1,10.471356055112402,0.0009441176
1358.7,2317.7,19007.0,5.2612e-05,68.265,80.459,113.18,42.602,60.641,1107.8,0.022222,,,supercritical,H2O,C7732185,water,647.0,220.64,17.9,0.0558659217877095,2.1,10.504441624365482,0.0009417547999999999
1358.7,2325.1,19054.0,5.2482e-05,68.247,80.449,113.15,42.612,60.658,1109.0,0.022067,,,supercritical,H2O,C7732185,water,647.0,220.64,17.9,0.0558659217877095,2.1,10.537980420594634,0.0009394278
1358.7,2332.4,19101.0,5.2352e-05,68.229,80.439,113.11,42.622,60.674,1110.2,0.021912,,,supercritical,H2O,C7732185,water,647.0,220.64,17.9,0.0558659217877095,2.1,10.571065989847718,0.0009371008
1358.7,2339.8,19149.0,5.2223e-05,68.21,80.43,113.08,42.632,60.69,1111.4,0.021758,,,supercritical,H2O,C7732185,water,647.0,220.64,17.9,0.0558659217877095,2.1,10.60460478607687,0.0009347916999999999
1358.7,2347.1,19195.0,5.2096e-05,68.192,80.42,113.04,42.642,60.706,1112.6,0.021605,,,supercritical,H2O,C7732185,water,647.0,220.64,17.9,0.0558659217877095,2.1,10.63769035532995,0.0009325183999999999
1358.7,2354.5,19242.0,5.1969e-05,68.174,80.41,113.01,42.652,60.722,1113.7,0.021452,,,supercritical,H2O,C7732185,water,647.0,220.64,17.9,0.0558659217877095,2.1,10.671229151559102,0.0009302451
1358.7,2361.8,19289.0,5.1843e-05,68.156,80.401,112.97,42.662,60.737,1114.9,0.0213,,,supercritical,H2O,C7732185,water,647.0,220.64,17.9,0.0558659217877095,2.1,10.704314720812183,0.0009279896999999999
1358.7,2369.2,19336.0,5.1718e-05,68.139,80.391,112.94,42.671,60.753,1116.1,0.021149,,,supercritical,H2O,C7732185,water,647.0,220.64,17.9,0.0558659217877095,2.1,10.737853517041334,0.0009257522
1358.7,2376.5,19382.0,5.1593e-05,68.121,80.382,112.9,42.681,60.768,1117.3,0.020998,,,supercritical,H2O,C7732185,water,647.0,220.64,17.9,0.0558659217877095,2.1,10.770939086294417,0.0009235146999999999
1358.7,2383.9,19429.0,5.147e-05,68.103,80.373,112.87,42.691,60.783,1118.5,0.020848,,,supercritical,H2O,C7732185,water,647.0,220.64,17.9,0.0558659217877095,2.1,10.80447788252357,0.000921313
1358.7,2391.2,19475.0,5.1347e-05,68.085,80.363,112.83,42.7,60.798,1119.7,0.020699,,,supercritical,H2O,C7732185,water,647.0,220.64,17.9,0.0558659217877095,2.1,10.83756345177665,0.0009191113
1358.7,2398.6,19521.0,5.1226e-05,68.067,80.354,112.8,42.71,60.813,1120.8,0.02055,,,supercritical,H2O,C7732185,water,647.0,220.64,17.9,0.0558659217877095,2.1,10.871102248005801,0.0009169454
1358.7,2405.9,19568.0,5.1105e-05,68.05,80.345,112.76,42.72,60.828,1122.0,0.020402,,,supercritical,H2O,C7732185,water,647.0,220.64,17.9,0.0558659217877095,2.1,10.904187817258885,0.0009147795
1358.7,2413.3,19614.0,5.0985e-05,68.032,80.336,112.73,42.729,60.843,1123.2,0.020255,,,supercritical,H2O,C7732185,water,647.0,220.64,17.9,0.0558659217877095,2.1,10.937726613488037,0.0009126315
1358.7,2420.6,19660.0,5.0865e-05,68.014,80.327,112.69,42.739,60.858,1124.4,0.020108,,,supercritical,H2O,C7732185,water,647.0,220.64,17.9,0.0558659217877095,2.1,10.970812182741117,0.0009104835
1358.7,2428.0,19706.0,5.0747e-05,67.997,80.318,112.66,42.749,60.872,1125.6,0.019962,,,supercritical,H2O,C7732185,water,647.0,220.64,17.9,0.0558659217877095,2.1,11.004350978970269,0.0009083712999999999
1358.7,2435.3,19751.0,5.0629e-05,67.979,80.309,112.63,42.758,60.887,1126.8,0.019816,,,supercritical,H2O,C7732185,water,647.0,220.64,17.9,0.0558659217877095,2.1,11.037436548223353,0.0009062590999999999
1358.7,2442.6,19797.0,5.0512e-05,67.962,80.3,112.59,42.768,60.901,1128.0,0.019672,,,supercritical,H2O,C7732185,water,647.0,220.64,17.9,0.0558659217877095,2.1,11.070522117476433,0.0009041648
1358.7,2450.0,19843.0,5.0396e-05,67.944,80.291,112.56,42.777,60.915,1129.2,0.019528,,,supercritical,H2O,C7732185,water,647.0,220.64,17.9,0.0558659217877095,2.1,11.104060913705585,0.0009020884
1358.7,2457.3,19888.0,5.0281e-05,67.927,80.283,112.53,42.787,60.929,1130.4,0.019384,,,supercritical,H2O,C7732185,water,647.0,220.64,17.9,0.0558659217877095,2.1,11.137146482958666,0.0009000299
1358.7,2464.7,19934.0,5.0166e-05,67.909,80.274,112.49,42.796,60.943,1131.6,0.019241,,,supercritical,H2O,C7732185,water,647.0,220.64,17.9,0.0558659217877095,2.1,11.170685279187817,0.0008979713999999999
1358.7,2472.0,19979.0,5.0053e-05,67.892,80.265,112.46,42.805,60.957,1132.8,0.019099,,,supercritical,H2O,C7732185,water,647.0,220.64,17.9,0.0558659217877095,2.1,11.2037708484409,0.0008959486999999998
1358.7,2479.4,20024.0,4.994e-05,67.875,80.257,112.43,42.815,60.97,1133.9,0.018958,,,supercritical,H2O,C7732185,water,647.0,220.64,17.9,0.0558659217877095,2.1,11.237309644670052,0.000893926
1358.7,2486.7,20069.0,4.9827e-05,67.858,80.248,112.39,42.824,60.984,1135.1,0.018817,,,supercritical,H2O,C7732185,water,647.0,220.64,17.9,0.0558659217877095,2.1,11.270395213923132,0.0008919033
1358.7,2494.1,20114.0,4.9716e-05,67.84,80.24,112.36,42.833,60.997,1136.3,0.018677,,,supercritical,H2O,C7732185,water,647.0,220.64,17.9,0.0558659217877095,2.1,11.303934010152284,0.0008899164
1358.7,2501.4,20159.0,4.9605e-05,67.823,80.232,112.33,42.843,61.011,1137.5,0.018537,,,supercritical,H2O,C7732185,water,647.0,220.64,17.9,0.0558659217877095,2.1,11.337019579405368,0.0008879294999999999
1358.7,2508.8,20204.0,4.9495e-05,67.806,80.223,112.29,42.852,61.024,1138.7,0.018398,,,supercritical,H2O,C7732185,water,647.0,220.64,17.9,0.0558659217877095,2.1,11.37055837563452,0.0008859604999999999
1358.7,2516.1,20249.0,4.9385e-05,67.789,80.215,112.26,42.861,61.037,1139.9,0.01826,,,supercritical,H2O,C7732185,water,647.0,220.64,17.9,0.0558659217877095,2.1,11.4036439448876,0.0008839914999999999
1358.7,2523.5,20294.0,4.9277e-05,67.772,80.207,112.23,42.87,61.05,1141.1,0.018123,,,supercritical,H2O,C7732185,water,647.0,220.64,17.9,0.0558659217877095,2.1,11.437182741116752,0.0008820583
1358.7,2530.8,20338.0,4.9169e-05,67.755,80.199,112.2,42.88,61.063,1142.3,0.017986,,,supercritical,H2O,C7732185,water,647.0,220.64,17.9,0.0558659217877095,2.1,11.470268310369836,0.0008801251
1358.7,2538.2,20383.0,4.9062e-05,67.738,80.191,112.16,42.889,61.076,1143.5,0.017849,,,supercritical,H2O,C7732185,water,647.0,220.64,17.9,0.0558659217877095,2.1,11.503807106598984,0.0008782098
1358.7,2545.5,20427.0,4.8955e-05,67.721,80.183,112.13,42.898,61.088,1144.7,0.017714,,,supercritical,H2O,C7732185,water,647.0,220.64,17.9,0.0558659217877095,2.1,11.536892675852068,0.0008762945
1358.7,2552.9,20471.0,4.8849e-05,67.704,80.175,112.1,42.907,61.101,1145.9,0.017579,,,supercritical,H2O,C7732185,water,647.0,220.64,17.9,0.0558659217877095,2.1,11.57043147208122,0.0008743970999999999
1358.7,2560.2,20515.0,4.8744e-05,67.688,80.167,112.07,42.916,61.113,1147.1,0.017444,,,supercritical,H2O,C7732185,water,647.0,220.64,17.9,0.0558659217877095,2.1,11.6035170413343,0.0008725175999999999
1358.7,2567.6,20559.0,4.8639e-05,67.671,80.159,112.03,42.925,61.126,1148.3,0.01731,,,supercritical,H2O,C7732185,water,647.0,220.64,17.9,0.0558659217877095,2.1,11.637055837563452,0.0008706380999999999
1358.7,2574.9,20603.0,4.8535e-05,67.654,80.152,112.0,42.934,61.138,1149.5,0.017177,,,supercritical,H2O,C7732185,water,647.0,220.64,17.9,0.0558659217877095,2.1,11.670141406816535,0.0008687765
1358.7,2582.3,20647.0,4.8432e-05,67.637,80.144,111.97,42.943,61.15,1150.7,0.017045,,,supercritical,H2O,C7732185,water,647.0,220.64,17.9,0.0558659217877095,2.1,11.703680203045687,0.0008669327999999999
1358.7,2589.6,20691.0,4.833e-05,67.621,80.136,111.94,42.952,61.162,1151.9,0.016913,,,supercritical,H2O,C7732185,water,647.0,220.64,17.9,0.0558659217877095,2.1,11.736765772298767,0.0008651069999999999
1358.7,2597.0,20735.0,4.8228e-05,67.604,80.129,111.91,42.961,61.174,1153.1,0.016781,,,supercritical,H2O,C7732185,water,647.0,220.64,17.9,0.0558659217877095,2.1,11.77030456852792,0.0008632812
1358.7,2604.3,20779.0,4.8126e-05,67.587,80.121,111.87,42.97,61.186,1154.3,0.016651,,,supercritical,H2O,C7732185,water,647.0,220.64,17.9,0.0558659217877095,2.1,11.803390137781003,0.0008614553999999999
1358.7,2611.7,20822.0,4.8026e-05,67.571,80.114,111.84,42.979,61.198,1155.5,0.016521,,,supercritical,H2O,C7732185,water,647.0,220.64,17.9,0.0558659217877095,2.1,11.836928934010151,0.0008596653999999999
1358.7,2619.0,20866.0,4.7926e-05,67.554,80.106,111.81,42.988,61.209,1156.7,0.016391,,,supercritical,H2O,C7732185,water,647.0,220.64,17.9,0.0558659217877095,2.1,11.870014503263235,0.0008578753999999999
1358.7,2626.4,20909.0,4.7826e-05,67.538,80.099,111.78,42.997,61.221,1157.9,0.016262,,,supercritical,H2O,C7732185,water,647.0,220.64,17.9,0.0558659217877095,2.1,11.903553299492387,0.0008560854
1358.7,2633.7,20952.0,4.7728e-05,67.522,80.092,111.75,43.006,61.232,1159.1,0.016134,,,supercritical,H2O,C7732185,water,647.0,220.64,17.9,0.0558659217877095,2.1,11.936638868745467,0.0008543312
1358.7,2641.1,20995.0,4.7629e-05,67.505,80.084,111.72,43.015,61.244,1160.3,0.016006,,,supercritical,H2O,C7732185,water,647.0,220.64,17.9,0.0558659217877095,2.1,11.970177664974619,0.0008525591
1358.7,2648.4,21039.0,4.7532e-05,67.489,80.077,111.69,43.023,61.255,1161.5,0.015879,,,supercritical,H2O,C7732185,water,647.0,220.64,17.9,0.0558659217877095,2.1,12.003263234227703,0.0008508227999999999
1358.7,2655.7,21082.0,4.7435e-05,67.473,80.07,111.66,43.032,61.266,1162.7,0.015753,,,supercritical,H2O,C7732185,water,647.0,220.64,17.9,0.0558659217877095,2.1,12.036348803480783,0.0008490864999999999
1358.7,2663.1,21124.0,4.7339e-05,67.456,80.063,111.63,43.041,61.277,1163.9,0.015627,,,supercritical,H2O,C7732185,water,647.0,220.64,17.9,0.0558659217877095,2.1,12.069887599709935,0.0008473681
1358.7,2670.4,21167.0,4.7243e-05,67.44,80.056,111.59,43.05,61.288,1165.1,0.015502,,,supercritical,H2O,C7732185,water,647.0,220.64,17.9,0.0558659217877095,2.1,12.102973168963018,0.0008456497
1358.7,2677.8,21210.0,4.7148e-05,67.424,80.049,111.56,43.059,61.299,1166.3,0.015377,,,supercritical,H2O,C7732185,water,647.0,220.64,17.9,0.0558659217877095,2.1,12.13651196519217,0.0008439492
1358.7,2685.1,21253.0,4.7053e-05,67.408,80.042,111.53,43.067,61.31,1167.5,0.015253,,,supercritical,H2O,C7732185,water,647.0,220.64,17.9,0.0558659217877095,2.1,12.16959753444525,0.0008422486999999999
1358.7,2692.5,21295.0,4.6959e-05,67.392,80.035,111.5,43.076,61.321,1168.7,0.01513,,,supercritical,H2O,C7732185,water,647.0,220.64,17.9,0.0558659217877095,2.1,12.203136330674402,0.0008405661
1358.7,2699.8,21338.0,4.6866e-05,67.376,80.029,111.47,43.085,61.332,1169.9,0.015007,,,supercritical,H2O,C7732185,water,647.0,220.64,17.9,0.0558659217877095,2.1,12.236221899927486,0.0008389014
1358.7,2707.2,21380.0,4.6773e-05,67.36,80.022,111.44,43.093,61.342,1171.1,0.014885,,,supercritical,H2O,C7732185,water,647.0,220.64,17.9,0.0558659217877095,2.1,12.269760696156634,0.0008372367
1358.7,2714.5,21422.0,4.668e-05,67.344,80.015,111.41,43.102,61.353,1172.3,0.014764,,,supercritical,H2O,C7732185,water,647.0,220.64,17.9,0.0558659217877095,2.1,12.302846265409718,0.0008355719999999999
1358.7,2721.9,21465.0,4.6588e-05,67.328,80.008,111.38,43.11,61.363,1173.5,0.014643,,,supercritical,H2O,C7732185,water,647.0,220.64,17.9,0.0558659217877095,2.1,12.33638506163887,0.0008339252
1358.7,2729.2,21507.0,4.6497e-05,67.312,80.002,111.35,43.119,61.374,1174.7,0.014522,,,supercritical,H2O,C7732185,water,647.0,220.64,17.9,0.0558659217877095,2.1,12.36947063089195,0.0008322962999999999
1358.7,2736.6,21549.0,4.6407e-05,67.296,79.995,111.32,43.128,61.384,1175.9,0.014402,,,supercritical,H2O,C7732185,water,647.0,220.64,17.9,0.0558659217877095,2.1,12.403009427121102,0.0008306853
1358.7,2743.9,21591.0,4.6316e-05,67.28,79.989,111.29,43.136,61.394,1177.1,0.014283,,,supercritical,H2O,C7732185,water,647.0,220.64,17.9,0.0558659217877095,2.1,12.436094996374186,0.0008290564
1358.7,2751.3,21632.0,4.6227e-05,67.264,79.982,111.26,43.145,61.404,1178.3,0.014164,,,supercritical,H2O,C7732185,water,647.0,220.64,17.9,0.0558659217877095,2.1,12.469633792603338,0.0008274633
1358.7,2758.6,21674.0,4.6138e-05,67.248,79.976,111.23,43.153,61.414,1179.5,0.014046,,,supercritical,H2O,C7732185,water,647.0,220.64,17.9,0.0558659217877095,2.1,12.502719361856418,0.0008258701999999999
1358.7,2766.0,21716.0,4.6049e-05,67.233,79.97,111.2,43.161,61.424,1180.7,0.013929,,,supercritical,H2O,C7732185,water,647.0,220.64,17.9,0.0558659217877095,2.1,12.53625815808557,0.0008242770999999999
1358.7,2773.3,21758.0,4.5961e-05,67.217,79.964,111.17,43.17,61.434,1181.9,0.013812,,,supercritical,H2O,C7732185,water,647.0,220.64,17.9,0.0558659217877095,2.1,12.569343727338653,0.0008227019
1358.7,2780.7,21799.0,4.5874e-05,67.201,79.957,111.14,43.178,61.444,1183.1,0.013695,,,supercritical,H2O,C7732185,water,647.0,220.64,17.9,0.0558659217877095,2.1,12.602882523567803,0.0008211446
1358.7,2788.0,21840.0,4.5787e-05,67.186,79.951,111.12,43.187,61.453,1184.3,0.01358,,,supercritical,H2O,C7732185,water,647.0,220.64,17.9,0.0558659217877095,2.1,12.635968092820885,0.0008195873
1358.7,2795.4,21882.0,4.57e-05,67.17,79.945,111.09,43.195,61.463,1185.5,0.013464,,,supercritical,H2O,C7732185,water,647.0,220.64,17.9,0.0558659217877095,2.1,12.669506889050037,0.00081803
1358.7,2802.7,21923.0,4.5614e-05,67.155,79.939,111.06,43.203,61.473,1186.7,0.01335,,,supercritical,H2O,C7732185,water,647.0,220.64,17.9,0.0558659217877095,2.1,12.702592458303117,0.0008164906
1358.7,2810.1,21964.0,4.5529e-05,67.139,79.933,111.03,43.212,61.482,1187.9,0.013236,,,supercritical,H2O,C7732185,water,647.0,220.64,17.9,0.0558659217877095,2.1,12.73613125453227,0.0008149691
1358.7,2817.4,22005.0,4.5444e-05,67.124,79.927,111.0,43.22,61.491,1189.1,0.013122,,,supercritical,H2O,C7732185,water,647.0,220.64,17.9,0.0558659217877095,2.1,12.769216823785353,0.0008134476
1358.7,2824.8,22046.0,4.5359e-05,67.108,79.921,110.97,43.228,61.501,1190.3,0.013009,,,supercritical,H2O,C7732185,water,647.0,220.64,17.9,0.0558659217877095,2.1,12.802755620014505,0.0008119260999999998
1358.7,2832.1,22087.0,4.5275e-05,67.093,79.915,110.94,43.237,61.51,1191.5,0.012897,,,supercritical,H2O,C7732185,water,647.0,220.64,17.9,0.0558659217877095,2.1,12.835841189267585,0.0008104225
1358.7,2839.5,22128.0,4.5191e-05,67.078,79.909,110.91,43.245,61.519,1192.7,0.012785,,,supercritical,H2O,C7732185,water,647.0,220.64,17.9,0.0558659217877095,2.1,12.869379985496737,0.0008089188999999999
1358.7,2846.8,22169.0,4.5108e-05,67.062,79.904,110.88,43.253,61.528,1193.9,0.012673,,,supercritical,H2O,C7732185,water,647.0,220.64,17.9,0.0558659217877095,2.1,12.90246555474982,0.0008074332
1358.7,2854.2,22210.0,4.5026e-05,67.047,79.898,110.86,43.261,61.538,1195.1,0.012563,,,supercritical,H2O,C7732185,water,647.0,220.64,17.9,0.0558659217877095,2.1,12.93600435097897,0.0008059653999999999
1358.7,2861.5,22250.0,4.4944e-05,67.032,79.892,110.83,43.27,61.547,1196.2,0.012452,,,supercritical,H2O,C7732185,water,647.0,220.64,17.9,0.0558659217877095,2.1,12.969089920232053,0.0008044976
1358.7,2868.9,22291.0,4.4862e-05,67.017,79.887,110.8,43.278,61.555,1197.4,0.012343,,,supercritical,H2O,C7732185,water,647.0,220.64,17.9,0.0558659217877095,2.1,13.002628716461205,0.0008030298
1358.7,2876.2,22331.0,4.4781e-05,67.001,79.881,110.77,43.286,61.564,1198.6,0.012234,,,supercritical,H2O,C7732185,water,647.0,220.64,17.9,0.0558659217877095,2.1,13.035714285714286,0.0008015798999999999
1358.7,2883.5,22371.0,4.47e-05,66.986,79.876,110.74,43.294,61.573,1199.8,0.012125,,,supercritical,H2O,C7732185,water,647.0,220.64,17.9,0.0558659217877095,2.1,13.068799854967368,0.00080013
1358.7,2890.9,22412.0,4.462e-05,66.971,79.87,110.71,43.302,61.582,1201.0,0.012017,,,supercritical,H2O,C7732185,water,647.0,220.64,17.9,0.0558659217877095,2.1,13.10233865119652,0.000798698
1358.7,2898.2,22452.0,4.454e-05,66.956,79.865,110.69,43.31,61.591,1202.2,0.011909,,,supercritical,H2O,C7732185,water,647.0,220.64,17.9,0.0558659217877095,2.1,13.1354242204496,0.0007972659999999999
1358.7,2905.6,22492.0,4.446e-05,66.941,79.859,110.66,43.318,61.599,1203.4,0.011802,,,supercritical,H2O,C7732185,water,647.0,220.64,17.9,0.0558659217877095,2.1,13.168963016678752,0.0007958339999999999
1358.7,2912.9,22532.0,4.4382e-05,66.926,79.854,110.63,43.326,61.608,1204.6,0.011696,,,supercritical,H2O,C7732185,water,647.0,220.64,17.9,0.0558659217877095,2.1,13.202048585931836,0.0007944378
1358.7,2920.3,22572.0,4.4303e-05,66.911,79.849,110.6,43.335,61.616,1205.8,0.01159,,,supercritical,H2O,C7732185,water,647.0,220.64,17.9,0.0558659217877095,2.1,13.235587382160988,0.0007930236999999999
1358.7,2927.6,22612.0,4.4225e-05,66.896,79.844,110.57,43.343,61.625,1207.0,0.011485,,,supercritical,H2O,C7732185,water,647.0,220.64,17.9,0.0558659217877095,2.1,13.268672951414068,0.0007916274999999999
1358.7,2935.0,22651.0,4.4147e-05,66.881,79.838,110.55,43.351,61.633,1208.2,0.01138,,,supercritical,H2O,C7732185,water,647.0,220.64,17.9,0.0558659217877095,2.1,13.30221174764322,0.0007902313
1358.7,2942.3,22691.0,4.407e-05,66.866,79.833,110.52,43.359,61.641,1209.4,0.011276,,,supercritical,H2O,C7732185,water,647.0,220.64,17.9,0.0558659217877095,2.1,13.335297316896304,0.0007888530000000001
1358.7,2949.7,22731.0,4.3993e-05,66.852,79.828,110.49,43.367,61.649,1210.6,0.011172,,,supercritical,H2O,C7732185,water,647.0,220.64,17.9,0.0558659217877095,2.1,13.368836113125454,0.0007874746999999999
1358.7,2957.0,22770.0,4.3917e-05,66.837,79.823,110.46,43.374,61.658,1211.7,0.011068,,,supercritical,H2O,C7732185,water,647.0,220.64,17.9,0.0558659217877095,2.1,13.401921682378536,0.0007861143
1358.7,2964.4,22810.0,4.3841e-05,66.822,79.818,110.44,43.382,61.666,1212.9,0.010966,,,supercritical,H2O,C7732185,water,647.0,220.64,17.9,0.0558659217877095,2.1,13.435460478607688,0.0007847539
1358.7,2971.7,22849.0,4.3765e-05,66.807,79.813,110.41,43.39,61.674,1214.1,0.010863,,,supercritical,H2O,C7732185,water,647.0,220.64,17.9,0.0558659217877095,2.1,13.46854604786077,0.0007833934999999999
1358.7,2979.1,22888.0,4.369e-05,66.793,79.808,110.38,43.398,61.682,1215.3,0.010762,,,supercritical,H2O,C7732185,water,647.0,220.64,17.9,0.0558659217877095,2.1,13.502084844089921,0.0007820509999999999