Temperature (K),Pressure (bar),Density (mol/m3),Volume (m3/mol),Internal Energy (kJ/mol),Enthalpy (kJ/mol),Entropy (J/mol*K),Cv (J/mol*K),Cp (J/mol*K),Sound Spd. (m/s),Joule-Thomson (K/bar),Viscosity (uPa*s),Therm. Cond. (W/m*K),Phase,substance,substance_id,substance_name,Tc,Pc,rhoc,Vmc,Tr,Pr,Vmr
262.79,263.08,13286.0,7.5268e-05,3.4687,5.4488,148.53,22.966,46.499,389.56,0.098055,31.807,0.045817,supercritical,O2,C7782447,oxygen,154.58,50.43,13.6,0.07352941176470588,1.7,5.2167360697997225,0.0010236448
262.79,264.44,13343.0,7.4948e-05,3.4607,5.4426,148.47,22.97,46.514,390.45,0.097091,31.905,0.045955,supercritical,O2,C7782447,oxygen,154.58,50.43,13.6,0.07352941176470588,1.7,5.243704144358516,0.0010192928
262.79,265.81,13399.0,7.4632e-05,3.4527,5.4365,148.41,22.975,46.529,391.35,0.096135,32.003,0.046092,supercritical,O2,C7782447,oxygen,154.58,50.43,13.6,0.07352941176470588,1.7,5.270870513583184,0.0010149952
262.79,267.18,13455.0,7.4319e-05,3.4448,5.4304,148.35,22.98,46.543,392.24,0.095186,32.101,0.04623,supercritical,O2,C7782447,oxygen,154.58,50.43,13.6,0.07352941176470588,1.7,5.298036882807852,0.0010107384
262.79,268.54,13511.0,7.4011e-05,3.4369,5.4244,148.29,22.984,46.557,393.14,0.094244,32.198,0.046367,supercritical,O2,C7782447,oxygen,154.58,50.43,13.6,0.07352941176470588,1.7,5.325004957366647,0.0010065495999999998
262.79,269.9,13567.0,7.3707e-05,3.4291,5.4185,148.22,22.989,46.57,394.03,0.093309,32.296,0.046504,supercritical,O2,C7782447,oxygen,154.58,50.43,13.6,0.07352941176470588,1.7,5.351973031925441,0.0010024152
262.79,271.27,13623.0,7.3406e-05,3.4213,5.4126,148.16,22.993,46.582,394.93,0.092382,32.394,0.046641,supercritical,O2,C7782447,oxygen,154.58,50.43,13.6,0.07352941176470588,1.7,5.379139401150109,0.0009983216
262.79,272.63,13678.0,7.311e-05,3.4135,5.4067,148.1,22.998,46.593,395.83,0.091462,32.491,0.046778,supercritical,O2,C7782447,oxygen,154.58,50.43,13.6,0.07352941176470588,1.7,5.406107475708903,0.000994296
262.79,274.0,13733.0,7.2817e-05,3.4057,5.4009,148.04,23.002,46.604,396.73,0.090549,32.588,0.046914,supercritical,O2,C7782447,oxygen,154.58,50.43,13.6,0.07352941176470588,1.7,5.433273844933571,0.0009903112
262.79,275.37,13788.0,7.2527e-05,3.398,5.3952,147.98,23.007,46.614,397.64,0.089643,32.686,0.04705,supercritical,O2,C7782447,oxygen,154.58,50.43,13.6,0.07352941176470588,1.7,5.460440214158239,0.0009863672
262.79,276.73,13842.0,7.2242e-05,3.3904,5.3895,147.92,23.011,46.624,398.54,0.088744,32.783,0.047186,supercritical,O2,C7782447,oxygen,154.58,50.43,13.6,0.07352941176470588,1.7,5.487408288717034,0.0009824912000000001
262.79,278.1,13897.0,7.196e-05,3.3827,5.3839,147.87,23.016,46.632,399.45,0.087852,32.88,0.047321,supercritical,O2,C7782447,oxygen,154.58,50.43,13.6,0.07352941176470588,1.7,5.514574657941702,0.0009786559999999998
262.79,279.46,13951.0,7.1681e-05,3.3751,5.3783,147.81,23.02,46.641,400.36,0.086967,32.977,0.047456,supercritical,O2,C7782447,oxygen,154.58,50.43,13.6,0.07352941176470588,1.7,5.541542732500496,0.0009748615999999999
262.79,280.82,14005.0,7.1405e-05,3.3676,5.3728,147.75,23.025,46.648,401.27,0.086089,33.073,0.047591,supercritical,O2,C7782447,oxygen,154.58,50.43,13.6,0.07352941176470588,1.7,5.56851080705929,0.0009711079999999999
262.79,282.19,14058.0,7.1133e-05,3.36,5.3674,147.69,23.029,46.655,402.18,0.085218,33.17,0.047725,supercritical,O2,C7782447,oxygen,154.58,50.43,13.6,0.07352941176470588,1.7,5.595677176283958,0.0009674088
262.79,283.56,14111.0,7.0865e-05,3.3526,5.362,147.63,23.034,46.662,403.09,0.084354,33.267,0.04786,supercritical,O2,C7782447,oxygen,154.58,50.43,13.6,0.07352941176470588,1.7,5.622843545508626,0.0009637640000000001
262.79,284.92,14164.0,7.0599e-05,3.3451,5.3566,147.58,23.038,46.668,404.0,0.083497,33.363,0.047994,supercritical,O2,C7782447,oxygen,154.58,50.43,13.6,0.07352941176470588,1.7,5.64981162006742,0.0009601464000000001
262.79,286.29,14217.0,7.0337e-05,3.3377,5.3513,147.52,23.042,46.673,404.91,0.082646,33.46,0.048127,supercritical,O2,C7782447,oxygen,154.58,50.43,13.6,0.07352941176470588,1.7,5.676977989292088,0.0009565832
262.79,287.65,14270.0,7.0078e-05,3.3303,5.3461,147.46,23.046,46.678,405.83,0.081803,33.556,0.048261,supercritical,O2,C7782447,oxygen,154.58,50.43,13.6,0.07352941176470588,1.7,5.703946063850882,0.0009530608
262.79,289.01,14322.0,6.9822e-05,3.323,5.3409,147.41,23.051,46.682,406.74,0.080966,33.652,0.048394,supercritical,O2,C7782447,oxygen,154.58,50.43,13.6,0.07352941176470588,1.7,5.730914138409677,0.0009495791999999999
262.79,290.38,14374.0,6.9569e-05,3.3156,5.3358,147.35,23.055,46.686,407.66,0.080135,33.748,0.048526,supercritical,O2,C7782447,oxygen,154.58,50.43,13.6,0.07352941176470588,1.7,5.758080507634345,0.0009461383999999999
262.79,291.75,14426.0,6.9318e-05,3.3084,5.3307,147.3,23.059,46.69,408.58,0.079312,33.844,0.048659,supercritical,O2,C7782447,oxygen,154.58,50.43,13.6,0.07352941176470588,1.7,5.785246876859013,0.0009427248
262.79,293.11,14478.0,6.9071e-05,3.3011,5.3257,147.24,23.063,46.692,409.49,0.078494,33.94,0.048791,supercritical,O2,C7782447,oxygen,154.58,50.43,13.6,0.07352941176470588,1.7,5.812214951417807,0.0009393656
262.79,294.48,14529.0,6.8827e-05,3.2939,5.3207,147.19,23.068,46.695,410.41,0.077684,34.035,0.048923,supercritical,O2,C7782447,oxygen,154.58,50.43,13.6,0.07352941176470588,1.7,5.839381320642475,0.0009360471999999999
262.79,295.84,14580.0,6.8586e-05,3.2867,5.3158,147.13,23.072,46.696,411.33,0.07688,34.131,0.049055,supercritical,O2,C7782447,oxygen,154.58,50.43,13.6,0.07352941176470588,1.7,5.866349395201269,0.0009327696
262.79,297.2,14631.0,6.8347e-05,3.2796,5.3109,147.08,23.076,46.698,412.25,0.076082,34.226,0.049186,supercritical,O2,C7782447,oxygen,154.58,50.43,13.6,0.07352941176470588,1.7,5.893317469760063,0.0009295192
262.79,298.57,14682.0,6.8111e-05,3.2725,5.3061,147.02,23.08,46.699,413.17,0.075291,34.322,0.049317,supercritical,O2,C7782447,oxygen,154.58,50.43,13.6,0.07352941176470588,1.7,5.920483838984731,0.0009263095999999999
262.79,299.94,14732.0,6.7878e-05,3.2654,5.3013,146.97,23.084,46.699,414.1,0.074506,34.417,0.049448,supercritical,O2,C7782447,oxygen,154.58,50.43,13.6,0.07352941176470588,1.7,5.947650208209399,0.0009231408
262.79,301.3,14783.0,6.7647e-05,3.2583,5.2966,146.92,23.088,46.699,415.02,0.073727,34.512,0.049578,supercritical,O2,C7782447,oxygen,154.58,50.43,13.6,0.07352941176470588,1.7,5.974618282768194,0.0009199992
262.79,302.67,14833.0,6.7419e-05,3.2513,5.2919,146.86,23.092,46.699,415.94,0.072955,34.607,0.049708,supercritical,O2,C7782447,oxygen,154.58,50.43,13.6,0.07352941176470588,1.7,6.001784651992862,0.0009168984
262.79,304.03,14882.0,6.7194e-05,3.2444,5.2873,146.81,23.097,46.698,416.86,0.072189,34.701,0.049838,supercritical,O2,C7782447,oxygen,154.58,50.43,13.6,0.07352941176470588,1.7,6.028752726551655,0.0009138383999999999
262.79,305.39,14932.0,6.6971e-05,3.2374,5.2827,146.76,23.101,46.696,417.79,0.071429,34.796,0.049968,supercritical,O2,C7782447,oxygen,154.58,50.43,13.6,0.07352941176470588,1.7,6.05572080111045,0.0009108056000000001
262.79,306.76,14981.0,6.6751e-05,3.2305,5.2781,146.71,23.105,46.695,418.71,0.070675,34.89,0.050097,supercritical,O2,C7782447,oxygen,154.58,50.43,13.6,0.07352941176470588,1.7,6.082887170335118,0.0009078135999999999
262.79,308.12,15030.0,6.6533e-05,3.2236,5.2737,146.66,23.109,46.693,419.64,0.069928,34.985,0.050226,supercritical,O2,C7782447,oxygen,154.58,50.43,13.6,0.07352941176470588,1.7,6.109855244893913,0.0009048487999999999
262.79,309.49,15079.0,6.6317e-05,3.2168,5.2692,146.61,23.113,46.69,420.56,0.069186,35.079,0.050355,supercritical,O2,C7782447,oxygen,154.58,50.43,13.6,0.07352941176470588,1.7,6.137021614118581,0.0009019111999999999
262.79,310.86,15128.0,6.6104e-05,3.21,5.2648,146.55,23.117,46.687,421.49,0.06845,35.173,0.050483,supercritical,O2,C7782447,oxygen,154.58,50.43,13.6,0.07352941176470588,1.7,6.164187983343249,0.0008990144
262.79,312.22,15176.0,6.5894e-05,3.2032,5.2605,146.5,23.121,46.684,422.41,0.067721,35.267,0.050611,supercritical,O2,C7782447,oxygen,154.58,50.43,13.6,0.07352941176470588,1.7,6.191156057902043,0.0008961584
262.79,313.58,15224.0,6.5685e-05,3.1964,5.2562,146.45,23.125,46.68,423.34,0.066997,35.36,0.050739,supercritical,O2,C7782447,oxygen,154.58,50.43,13.6,0.07352941176470588,1.7,6.2181241324608365,0.000893316
262.79,314.95,15272.0,6.5479e-05,3.1897,5.252,146.4,23.129,46.676,424.27,0.066279,35.454,0.050866,supercritical,O2,C7782447,oxygen,154.58,50.43,13.6,0.07352941176470588,1.7,6.2452905016855045,0.0008905143999999999
262.79,316.31,15320.0,6.5275e-05,3.183,5.2478,146.35,23.133,46.672,425.19,0.065567,35.547,0.050993,supercritical,O2,C7782447,oxygen,154.58,50.43,13.6,0.07352941176470588,1.7,6.272258576244299,0.00088774
262.79,317.68,15367.0,6.5073e-05,3.1764,5.2436,146.3,23.136,46.667,426.12,0.06486,35.641,0.05112,supercritical,O2,C7782447,oxygen,154.58,50.43,13.6,0.07352941176470588,1.7,6.299424945468967,0.0008849928000000001
262.79,319.05,15415.0,6.4874e-05,3.1697,5.2395,146.25,23.14,46.662,427.05,0.06416,35.734,0.051247,supercritical,O2,C7782447,oxygen,154.58,50.43,13.6,0.07352941176470588,1.7,6.326591314693635,0.0008822864000000001
262.79,320.41,15462.0,6.4676e-05,3.1632,5.2354,146.2,23.144,46.657,427.97,0.063465,35.827,0.051373,supercritical,O2,C7782447,oxygen,154.58,50.43,13.6,0.07352941176470588,1.7,6.35355938925243,0.0008795936
262.79,321.77,15508.0,6.4481e-05,3.1566,5.2314,146.16,23.148,46.651,428.9,0.062775,35.92,0.051499,supercritical,O2,C7782447,oxygen,154.58,50.43,13.6,0.07352941176470588,1.7,6.380527463811223,0.0008769415999999999
262.79,323.14,15555.0,6.4288e-05,3.1501,5.2274,146.11,23.152,46.645,429.83,0.062091,36.013,0.051625,supercritical,O2,C7782447,oxygen,154.58,50.43,13.6,0.07352941176470588,1.7,6.407693833035891,0.0008743168
262.79,324.5,15602.0,6.4096e-05,3.1436,5.2235,146.06,23.156,46.639,430.75,0.061413,36.105,0.051751,supercritical,O2,C7782447,oxygen,154.58,50.43,13.6,0.07352941176470588,1.7,6.434661907594686,0.0008717056000000001
262.79,325.87,15648.0,6.3907e-05,3.1371,5.2196,146.01,23.16,46.633,431.68,0.06074,36.198,0.051876,supercritical,O2,C7782447,oxygen,154.58,50.43,13.6,0.07352941176470588,1.7,6.461828276819354,0.0008691351999999999
262.79,327.24,15694.0,6.372e-05,3.1306,5.2158,145.96,23.164,46.626,432.61,0.060073,36.29,0.052001,supercritical,O2,C7782447,oxygen,154.58,50.43,13.6,0.07352941176470588,1.7,6.488994646044022,0.000866592
262.79,328.6,15739.0,6.3535e-05,3.1242,5.212,145.92,23.167,46.619,433.54,0.059411,36.382,0.052126,supercritical,O2,C7782447,oxygen,154.58,50.43,13.6,0.07352941176470588,1.7,6.515962720602817,0.0008640759999999999
262.79,329.96,15785.0,6.3351e-05,3.1179,5.2082,145.87,23.171,46.611,434.46,0.058755,36.474,0.05225,supercritical,O2,C7782447,oxygen,154.58,50.43,13.6,0.07352941176470588,1.7,6.54293079516161,0.0008615735999999999
262.79,331.33,15830.0,6.317e-05,3.1115,5.2045,145.82,23.175,46.604,435.39,0.058103,36.566,0.052374,supercritical,O2,C7782447,oxygen,154.58,50.43,13.6,0.07352941176470588,1.7,6.5700971643862776,0.0008591120000000001
262.79,332.69,15876.0,6.299e-05,3.1052,5.2008,145.77,23.179,46.596,436.32,0.057457,36.658,0.052498,supercritical,O2,C7782447,oxygen,154.58,50.43,13.6,0.07352941176470588,1.7,6.597065238945072,0.000856664
262.79,334.06,15920.0,6.2812e-05,3.0989,5.1972,145.73,23.183,46.588,437.24,0.056816,36.749,0.052621,supercritical,O2,C7782447,oxygen,154.58,50.43,13.6,0.07352941176470588,1.7,6.62423160816974,0.0008542431999999999
262.79,335.43,15965.0,6.2636e-05,3.0926,5.1936,145.68,23.186,46.579,438.17,0.056181,36.841,0.052745,supercritical,O2,C7782447,oxygen,154.58,50.43,13.6,0.07352941176470588,1.7,6.651397977394408,0.0008518496
262.79,336.79,16010.0,6.2462e-05,3.0864,5.1901,145.64,23.19,46.57,439.1,0.05555,36.932,0.052868,supercritical,O2,C7782447,oxygen,154.58,50.43,13.6,0.07352941176470588,1.7,6.678366051953203,0.0008494832
262.79,338.15,16054.0,6.2289e-05,3.0802,5.1865,145.59,23.194,46.562,440.02,0.054925,37.023,0.05299,supercritical,O2,C7782447,oxygen,154.58,50.43,13.6,0.07352941176470588,1.7,6.705334126511996,0.0008471304
262.79,339.52,16098.0,6.2119e-05,3.074,5.1831,145.54,23.198,46.552,440.95,0.054304,37.114,0.053113,supercritical,O2,C7782447,oxygen,154.58,50.43,13.6,0.07352941176470588,1.7,6.732500495736664,0.0008448184
262.79,340.88,16142.0,6.195e-05,3.0679,5.1796,145.5,23.201,46.543,441.87,0.053689,37.205,0.053235,supercritical,O2,C7782447,oxygen,154.58,50.43,13.6,0.07352941176470588,1.7,6.759468570295459,0.00084252
262.79,342.25,16186.0,6.1782e-05,3.0618,5.1763,145.45,23.205,46.533,442.8,0.053079,37.296,0.053357,supercritical,O2,C7782447,oxygen,154.58,50.43,13.6,0.07352941176470588,1.7,6.786634939520127,0.0008402352
262.79,343.62,16229.0,6.1617e-05,3.0557,5.1729,145.41,23.209,46.524,443.72,0.052473,37.386,0.053479,supercritical,O2,C7782447,oxygen,154.58,50.43,13.6,0.07352941176470588,1.7,6.813801308744795,0.0008379912
262.79,344.98,16273.0,6.1453e-05,3.0496,5.1696,145.36,23.213,46.514,444.65,0.051872,37.477,0.0536,supercritical,O2,C7782447,oxygen,154.58,50.43,13.6,0.07352941176470588,1.7,6.84076938330359,0.0008357607999999999
262.79,346.35,16316.0,6.129e-05,3.0436,5.1663,145.32,23.216,46.503,445.57,0.051277,37.567,0.053722,supercritical,O2,C7782447,oxygen,154.58,50.43,13.6,0.07352941176470588,1.7,6.867935752528258,0.0008335440000000001
262.79,347.71,16359.0,6.1129e-05,3.0376,5.1631,145.28,23.22,46.493,446.5,0.050686,37.657,0.053842,supercritical,O2,C7782447,oxygen,154.58,50.43,13.6,0.07352941176470588,1.7,6.894903827087051,0.0008313544
262.79,349.07,16402.0,6.097e-05,3.0316,5.1599,145.23,23.224,46.483,447.42,0.050099,37.747,0.053963,supercritical,O2,C7782447,oxygen,154.58,50.43,13.6,0.07352941176470588,1.7,6.921871901645845,0.000829192
262.79,350.44,16444.0,6.0812e-05,3.0256,5.1567,145.19,23.227,46.472,448.34,0.049518,37.837,0.054084,supercritical,O2,C7782447,oxygen,154.58,50.43,13.6,0.07352941176470588,1.7,6.949038270870513,0.0008270431999999999
262.79,351.81,16486.0,6.0656e-05,3.0197,5.1536,145.15,23.231,46.461,449.26,0.048941,37.927,0.054204,supercritical,O2,C7782447,oxygen,154.58,50.43,13.6,0.07352941176470588,1.7,6.976204640095181,0.0008249216
262.79,353.17,16529.0,6.0501e-05,3.0138,5.1505,145.1,23.235,46.45,450.19,0.048368,38.016,0.054324,supercritical,O2,C7782447,oxygen,154.58,50.43,13.6,0.07352941176470588,1.7,7.003172714653976,0.0008228136
262.79,354.54,16571.0,6.0348e-05,3.0079,5.1475,145.06,23.238,46.438,451.11,0.047801,38.106,0.054443,supercritical,O2,C7782447,oxygen,154.58,50.43,13.6,0.07352941176470588,1.7,7.030339083878644,0.0008207328
262.79,355.9,16612.0,6.0196e-05,3.0021,5.1445,145.02,23.242,46.427,452.03,0.047237,38.195,0.054563,supercritical,O2,C7782447,oxygen,154.58,50.43,13.6,0.07352941176470588,1.7,7.057307158437438,0.0008186656
262.79,357.26,16654.0,6.0046e-05,2.9963,5.1415,144.97,23.246,46.415,452.95,0.046679,38.284,0.054682,supercritical,O2,C7782447,oxygen,154.58,50.43,13.6,0.07352941176470588,1.7,7.084275232996232,0.0008166256
262.79,358.63,16695.0,5.9897e-05,2.9905,5.1385,144.93,23.249,46.404,453.87,0.046124,38.373,0.054801,supercritical,O2,C7782447,oxygen,154.58,50.43,13.6,0.07352941176470588,1.7,7.1114416022209,0.0008145992
262.79,360.0,16737.0,5.9749e-05,2.9847,5.1356,144.89,23.253,46.392,454.79,0.045574,38.462,0.05492,supercritical,O2,C7782447,oxygen,154.58,50.43,13.6,0.07352941176470588,1.7,7.138607971445568,0.0008125863999999999
262.79,361.36,16778.0,5.9603e-05,2.979,5.1328,144.85,23.257,46.38,455.71,0.045029,38.551,0.055038,supercritical,O2,C7782447,oxygen,154.58,50.43,13.6,0.07352941176470588,1.7,7.165576046004363,0.0008106007999999999
262.79,362.73,16819.0,5.9458e-05,2.9732,5.1299,144.81,23.26,46.367,456.63,0.044488,38.639,0.055156,supercritical,O2,C7782447,oxygen,154.58,50.43,13.6,0.07352941176470588,1.7,7.192742415229031,0.0008086288
262.79,364.09,16859.0,5.9314e-05,2.9676,5.1271,144.76,23.264,46.355,457.55,0.043951,38.728,0.055274,supercritical,O2,C7782447,oxygen,154.58,50.43,13.6,0.07352941176470588,1.7,7.219710489787825,0.0008066704
262.79,365.45,16900.0,5.9172e-05,2.9619,5.1244,144.72,23.267,46.342,458.46,0.043418,38.816,0.055392,supercritical,O2,C7782447,oxygen,154.58,50.43,13.6,0.07352941176470588,1.7,7.2466785643466185,0.0008047392
262.79,366.82,16940.0,5.9031e-05,2.9563,5.1216,144.68,23.271,46.33,459.38,0.04289,38.904,0.05551,supercritical,O2,C7782447,oxygen,154.58,50.43,13.6,0.07352941176470588,1.7,7.2738449335712865,0.0008028216
262.79,368.19,16980.0,5.8892e-05,2.9506,5.1189,144.64,23.275,46.317,460.3,0.042365,38.992,0.055627,supercritical,O2,C7782447,oxygen,154.58,50.43,13.6,0.07352941176470588,1.7,7.3010113027959544,0.0008009311999999999
262.79,369.55,17020.0,5.8753e-05,2.945,5.1163,144.6,23.278,46.304,461.21,0.041845,39.08,0.055744,supercritical,O2,C7782447,oxygen,154.58,50.43,13.6,0.07352941176470588,1.7,7.327979377354749,0.0007990407999999999
262.79,370.92,17060.0,5.8616e-05,2.9395,5.1137,144.56,23.282,46.291,462.13,0.041329,39.168,0.055861,supercritical,O2,C7782447,oxygen,154.58,50.43,13.6,0.07352941176470588,1.7,7.355145746579417,0.0007971776
262.79,372.28,17100.0,5.848e-05,2.9339,5.1111,144.52,23.285,46.278,463.04,0.040817,39.256,0.055978,supercritical,O2,C7782447,oxygen,154.58,50.43,13.6,0.07352941176470588,1.7,7.382113821138211,0.000795328
262.79,373.64,17139.0,5.8346e-05,2.9284,5.1085,144.48,23.289,46.265,463.95,0.040309,39.343,0.056094,supercritical,O2,C7782447,oxygen,154.58,50.43,13.6,0.07352941176470588,1.7,7.409081895697006,0.0007935056
262.79,375.01,17178.0,5.8212e-05,2.9229,5.106,144.44,23.292,46.252,464.86,0.039805,39.431,0.05621,supercritical,O2,C7782447,oxygen,154.58,50.43,13.6,0.07352941176470588,1.7,7.436248264921674,0.0007916831999999999
262.79,376.38,17218.0,5.808e-05,2.9175,5.1035,144.4,23.296,46.238,465.78,0.039305,39.518,0.056326,supercritical,O2,C7782447,oxygen,154.58,50.43,13.6,0.07352941176470588,1.7,7.463414634146341,0.000789888
262.79,377.74,17257.0,5.7949e-05,2.912,5.101,144.36,23.299,46.225,466.69,0.038809,39.605,0.056442,supercritical,O2,C7782447,oxygen,154.58,50.43,13.6,0.07352941176470588,1.7,7.490382708705136,0.0007881063999999999
262.79,379.11,17295.0,5.7819e-05,2.9066,5.0986,144.32,23.303,46.211,467.6,0.038317,39.692,0.056558,supercritical,O2,C7782447,oxygen,154.58,50.43,13.6,0.07352941176470588,1.7,7.517549077929804,0.0007863384000000001
262.79,380.47,17334.0,5.769e-05,2.9012,5.0962,144.28,23.307,46.197,468.51,0.037828,39.779,0.056673,supercritical,O2,C7782447,oxygen,154.58,50.43,13.6,0.07352941176470588,1.7,7.5445171524885986,0.000784584
262.79,381.83,17372.0,5.7563e-05,2.8959,5.0938,144.24,23.31,46.184,469.42,0.037344,39.865,0.056788,supercritical,O2,C7782447,oxygen,154.58,50.43,13.6,0.07352941176470588,1.7,7.5714852270473925,0.0007828567999999999
262.79,383.2,17411.0,5.7436e-05,2.8905,5.0915,144.2,23.314,46.17,470.32,0.036863,39.952,0.056903,supercritical,O2,C7782447,oxygen,154.58,50.43,13.6,0.07352941176470588,1.7,7.59865159627206,0.0007811296
262.79,384.56,17449.0,5.7311e-05,2.8852,5.0892,144.17,23.317,46.156,471.23,0.036386,40.039,0.057018,supercritical,O2,C7782447,oxygen,154.58,50.43,13.6,0.07352941176470588,1.7,7.625619670830854,0.0007794296
262.79,385.93,17487.0,5.7186e-05,2.8799,5.0869,144.13,23.321,46.142,472.14,0.035912,40.125,0.057132,supercritical,O2,C7782447,oxygen,154.58,50.43,13.6,0.07352941176470588,1.7,7.652786040055522,0.0007777296
262.79,387.3,17524.0,5.7063e-05,2.8746,5.0846,144.09,23.324,46.127,473.04,0.035443,40.211,0.057246,supercritical,O2,C7782447,oxygen,154.58,50.43,13.6,0.07352941176470588,1.7,7.67995240928019,0.0007760568
262.79,388.66,17562.0,5.6941e-05,2.8693,5.0824,144.05,23.328,46.113,473.95,0.034977,40.297,0.057361,supercritical,O2,C7782447,oxygen,154.58,50.43,13.6,0.07352941176470588,1.7,7.706920483838985,0.0007743976
262.79,390.02,17600.0,5.682e-05,2.8641,5.0802,144.01,23.331,46.099,474.85,0.034514,40.383,0.057474,supercritical,O2,C7782447,oxygen,154.58,50.43,13.6,0.07352941176470588,1.7,7.733888558397779,0.000772752