Temperature (K),Pressure (bar),Density (mol/m3),Volume (m3/mol),Internal Energy (kJ/mol),Enthalpy (kJ/mol),Entropy (J/mol*K),Cv (J/mol*K),Cp (J/mol*K),Sound Spd. (m/s),Joule-Thomson (K/bar),Viscosity (uPa*s),Therm. Cond. (W/m*K),Phase,substance,substance_id,substance_name,Tc,Pc,rhoc,Vmc,Tr,Pr,Vmr
517.11,227.17,5767.4,0.00017339,24.661,28.6,93.756,39.188,58.476,363.68,0.1776,30.537,0.045582,supercritical,CO2,C124389,carbon-dioxide,304.18,73.8,10.6,0.09433962264150944,1.7,3.0781842818428182,0.0018379339999999998
517.11,229.62,5830.4,0.00017151,24.636,28.575,93.624,39.207,58.602,364.32,0.17617,30.641,0.045748,supercritical,CO2,C124389,carbon-dioxide,304.18,73.8,10.6,0.09433962264150944,1.7,3.1113821138211386,0.0018180059999999998
517.11,232.08,5893.2,0.00016969,24.611,28.549,93.494,39.226,58.727,364.97,0.17474,30.746,0.045915,supercritical,CO2,C124389,carbon-dioxide,304.18,73.8,10.6,0.09433962264150944,1.7,3.144715447154472,0.001798714
517.11,234.54,5956.0,0.0001679,24.586,28.524,93.365,39.245,58.85,365.62,0.17332,30.852,0.046082,supercritical,CO2,C124389,carbon-dioxide,304.18,73.8,10.6,0.09433962264150944,1.7,3.178048780487805,0.0017797399999999997
517.11,237.0,6018.6,0.00016615,24.561,28.499,93.238,39.263,58.972,366.29,0.1719,30.959,0.046251,supercritical,CO2,C124389,carbon-dioxide,304.18,73.8,10.6,0.09433962264150944,1.7,3.2113821138211383,0.00176119
517.11,239.46,6081.0,0.00016445,24.537,28.474,93.111,39.282,59.093,366.97,0.17048,31.066,0.04642,supercritical,CO2,C124389,carbon-dioxide,304.18,73.8,10.6,0.09433962264150944,1.7,3.244715447154472,0.00174317
517.11,241.92,6143.4,0.00016278,24.512,28.45,92.986,39.3,59.213,367.65,0.16906,31.174,0.04659,supercritical,CO2,C124389,carbon-dioxide,304.18,73.8,10.6,0.09433962264150944,1.7,3.2780487804878047,0.001725468
517.11,244.37,6205.6,0.00016115,24.487,28.425,92.861,39.318,59.332,368.35,0.16765,31.283,0.04676,supercritical,CO2,C124389,carbon-dioxide,304.18,73.8,10.6,0.09433962264150944,1.7,3.311246612466125,0.0017081899999999998
517.11,246.83,6267.6,0.00015955,24.463,28.401,92.738,39.335,59.449,369.05,0.16624,31.393,0.046931,supercritical,CO2,C124389,carbon-dioxide,304.18,73.8,10.6,0.09433962264150944,1.7,3.3445799457994583,0.00169123
517.11,249.29,6329.5,0.00015799,24.438,28.377,92.615,39.353,59.565,369.76,0.16483,31.504,0.047103,supercritical,CO2,C124389,carbon-dioxide,304.18,73.8,10.6,0.09433962264150944,1.7,3.3779132791327915,0.0016746939999999998
517.11,251.75,6391.3,0.00015646,24.414,28.353,92.494,39.371,59.68,370.49,0.16343,31.615,0.047276,supercritical,CO2,C124389,carbon-dioxide,304.18,73.8,10.6,0.09433962264150944,1.7,3.4112466124661247,0.0016584759999999999
517.11,254.21,6452.9,0.00015497,24.389,28.329,92.374,39.388,59.793,371.22,0.16203,31.728,0.047449,supercritical,CO2,C124389,carbon-dioxide,304.18,73.8,10.6,0.09433962264150944,1.7,3.4445799457994584,0.0016426819999999997
517.11,256.67,6514.4,0.00015351,24.365,28.305,92.255,39.405,59.905,371.96,0.16064,31.841,0.047622,supercritical,CO2,C124389,carbon-dioxide,304.18,73.8,10.6,0.09433962264150944,1.7,3.4779132791327916,0.001627206
517.11,259.12,6575.7,0.00015208,24.341,28.281,92.136,39.422,60.016,372.71,0.15925,31.955,0.047797,supercritical,CO2,C124389,carbon-dioxide,304.18,73.8,10.6,0.09433962264150944,1.7,3.5111111111111115,0.0016120479999999998
517.11,261.58,6636.8,0.00015068,24.317,28.258,92.019,39.438,60.126,373.47,0.15787,32.069,0.047971,supercritical,CO2,C124389,carbon-dioxide,304.18,73.8,10.6,0.09433962264150944,1.7,3.5444444444444443,0.0015972079999999997
517.11,264.04,6697.8,0.0001493,24.292,28.235,91.903,39.455,60.234,374.24,0.1565,32.184,0.048147,supercritical,CO2,C124389,carbon-dioxide,304.18,73.8,10.6,0.09433962264150944,1.7,3.5777777777777784,0.0015825799999999999
517.11,266.5,6758.6,0.00014796,24.268,28.212,91.788,39.471,60.341,375.01,0.15512,32.301,0.048322,supercritical,CO2,C124389,carbon-dioxide,304.18,73.8,10.6,0.09433962264150944,1.7,3.611111111111111,0.001568376
517.11,268.96,6819.2,0.00014664,24.245,28.189,91.673,39.488,60.446,375.8,0.15376,32.417,0.048499,supercritical,CO2,C124389,carbon-dioxide,304.18,73.8,10.6,0.09433962264150944,1.7,3.6444444444444444,0.0015543839999999998
517.11,271.42,6879.7,0.00014536,24.221,28.166,91.56,39.504,60.55,376.59,0.1524,32.535,0.048675,supercritical,CO2,C124389,carbon-dioxide,304.18,73.8,10.6,0.09433962264150944,1.7,3.677777777777778,0.001540816
517.11,273.87,6940.0,0.00014409,24.197,28.143,91.447,39.52,60.653,377.39,0.15104,32.653,0.048853,supercritical,CO2,C124389,carbon-dioxide,304.18,73.8,10.6,0.09433962264150944,1.7,3.710975609756098,0.001527354
517.11,276.33,7000.1,0.00014286,24.173,28.121,91.336,39.535,60.754,378.2,0.1497,32.772,0.04903,supercritical,CO2,C124389,carbon-dioxide,304.18,73.8,10.6,0.09433962264150944,1.7,3.7443089430894307,0.001514316
517.11,278.79,7060.0,0.00014164,24.15,28.099,91.225,39.551,60.855,379.02,0.14835,32.892,0.049208,supercritical,CO2,C124389,carbon-dioxide,304.18,73.8,10.6,0.09433962264150944,1.7,3.777642276422765,0.001501384
517.11,281.25,7119.7,0.00014046,24.126,28.076,91.115,39.566,60.953,379.85,0.14702,33.012,0.049387,supercritical,CO2,C124389,carbon-dioxide,304.18,73.8,10.6,0.09433962264150944,1.7,3.8109756097560976,0.0014888759999999999
517.11,283.71,7179.3,0.00013929,24.103,28.054,91.006,39.581,61.051,380.68,0.14569,33.133,0.049566,supercritical,CO2,C124389,carbon-dioxide,304.18,73.8,10.6,0.09433962264150944,1.7,3.844308943089431,0.001476474
517.11,286.17,7238.6,0.00013815,24.079,28.033,90.898,39.597,61.147,381.52,0.14437,33.255,0.049745,supercritical,CO2,C124389,carbon-dioxide,304.18,73.8,10.6,0.09433962264150944,1.7,3.8776422764227645,0.0014643899999999999
517.11,288.62,7297.8,0.00013703,24.056,28.011,90.791,39.611,61.241,382.37,0.14305,33.377,0.049924,supercritical,CO2,C124389,carbon-dioxide,304.18,73.8,10.6,0.09433962264150944,1.7,3.9108401084010844,0.001452518
517.11,291.08,7356.8,0.00013593,24.033,27.99,90.685,39.626,61.335,383.23,0.14175,33.5,0.050104,supercritical,CO2,C124389,carbon-dioxide,304.18,73.8,10.6,0.09433962264150944,1.7,3.944173441734417,0.001440858
517.11,293.54,7415.5,0.00013485,24.01,27.968,90.579,39.641,61.427,384.09,0.14045,33.624,0.050285,supercritical,CO2,C124389,carbon-dioxide,304.18,73.8,10.6,0.09433962264150944,1.7,3.9775067750677513,0.0014294099999999999
517.11,296.0,7474.1,0.0001338,23.987,27.947,90.474,39.655,61.518,384.97,0.13915,33.748,0.050465,supercritical,CO2,C124389,carbon-dioxide,304.18,73.8,10.6,0.09433962264150944,1.7,4.0108401084010845,0.0014182799999999998
517.11,298.46,7532.5,0.00013276,23.964,27.926,90.37,39.669,61.607,385.85,0.13786,33.873,0.050646,supercritical,CO2,C124389,carbon-dioxide,304.18,73.8,10.6,0.09433962264150944,1.7,4.044173441734417,0.001407256
517.11,300.92,7590.6,0.00013174,23.941,27.905,90.267,39.684,61.695,386.73,0.13659,33.998,0.050827,supercritical,CO2,C124389,carbon-dioxide,304.18,73.8,10.6,0.09433962264150944,1.7,4.077506775067751,0.001396444
517.11,303.37,7648.6,0.00013074,23.918,27.885,90.165,39.698,61.782,387.63,0.13531,34.125,0.051008,supercritical,CO2,C124389,carbon-dioxide,304.18,73.8,10.6,0.09433962264150944,1.7,4.11070460704607,0.001385844
517.11,305.83,7706.3,0.00012976,23.896,27.864,90.064,39.711,61.867,388.53,0.13405,34.251,0.051189,supercritical,CO2,C124389,carbon-dioxide,304.18,73.8,10.6,0.09433962264150944,1.7,4.144037940379404,0.001375456
517.11,308.29,7763.9,0.0001288,23.873,27.844,89.963,39.725,61.951,389.43,0.1328,34.378,0.051371,supercritical,CO2,C124389,carbon-dioxide,304.18,73.8,10.6,0.09433962264150944,1.7,4.177371273712738,0.0013652799999999997
517.11,310.75,7821.2,0.00012786,23.851,27.824,89.863,39.738,62.034,390.35,0.13155,34.506,0.051553,supercritical,CO2,C124389,carbon-dioxide,304.18,73.8,10.6,0.09433962264150944,1.7,4.210704607046071,0.001355316
517.11,313.21,7878.3,0.00012693,23.828,27.804,89.764,39.752,62.115,391.27,0.13031,34.635,0.051735,supercritical,CO2,C124389,carbon-dioxide,304.18,73.8,10.6,0.09433962264150944,1.7,4.244037940379403,0.001345458
517.11,315.67,7935.3,0.00012602,23.806,27.784,89.665,39.765,62.195,392.2,0.12907,34.764,0.051917,supercritical,CO2,C124389,carbon-dioxide,304.18,73.8,10.6,0.09433962264150944,1.7,4.277371273712737,0.0013358119999999998
517.11,318.12,7991.9,0.00012513,23.784,27.764,89.567,39.778,62.274,393.13,0.12785,34.893,0.052099,supercritical,CO2,C124389,carbon-dioxide,304.18,73.8,10.6,0.09433962264150944,1.7,4.310569105691057,0.0013263779999999998
517.11,320.58,8048.4,0.00012425,23.762,27.745,89.471,39.791,62.352,394.07,0.12663,35.023,0.052281,supercritical,CO2,C124389,carbon-dioxide,304.18,73.8,10.6,0.09433962264150944,1.7,4.34390243902439,0.00131705
517.11,323.04,8104.7,0.00012339,23.74,27.726,89.374,39.804,62.428,395.02,0.12543,35.154,0.052464,supercritical,CO2,C124389,carbon-dioxide,304.18,73.8,10.6,0.09433962264150944,1.7,4.377235772357724,0.001307934
517.11,325.5,8160.7,0.00012254,23.718,27.706,89.279,39.816,62.503,395.97,0.12423,35.285,0.052646,supercritical,CO2,C124389,carbon-dioxide,304.18,73.8,10.6,0.09433962264150944,1.7,4.410569105691057,0.001298924
517.11,327.96,8216.5,0.00012171,23.696,27.687,89.184,39.829,62.577,396.93,0.12304,35.416,0.052829,supercritical,CO2,C124389,carbon-dioxide,304.18,73.8,10.6,0.09433962264150944,1.7,4.44390243902439,0.001290126
517.11,330.42,8272.1,0.00012089,23.674,27.669,89.09,39.841,62.65,397.89,0.12185,35.548,0.053012,supercritical,CO2,C124389,carbon-dioxide,304.18,73.8,10.6,0.09433962264150944,1.7,4.477235772357724,0.001281434
517.11,332.87,8327.5,0.00012008,23.653,27.65,88.996,39.854,62.721,398.86,0.12068,35.681,0.053194,supercritical,CO2,C124389,carbon-dioxide,304.18,73.8,10.6,0.09433962264150944,1.7,4.510433604336043,0.001272848
517.11,335.33,8382.6,0.00011929,23.631,27.631,88.904,39.866,62.791,399.84,0.11951,35.814,0.053377,supercritical,CO2,C124389,carbon-dioxide,304.18,73.8,10.6,0.09433962264150944,1.7,4.543766937669377,0.001264474
517.11,337.79,8437.5,0.00011852,23.61,27.613,88.812,39.878,62.86,400.82,0.11835,35.947,0.05356,supercritical,CO2,C124389,carbon-dioxide,304.18,73.8,10.6,0.09433962264150944,1.7,4.577100271002711,0.0012563119999999999
517.11,340.25,8492.2,0.00011775,23.588,27.595,88.72,39.89,62.927,401.81,0.1172,36.081,0.053742,supercritical,CO2,C124389,carbon-dioxide,304.18,73.8,10.6,0.09433962264150944,1.7,4.610433604336044,0.00124815
517.11,342.71,8546.7,0.000117,23.567,27.577,88.63,39.901,62.994,402.8,0.11606,36.216,0.053925,supercritical,CO2,C124389,carbon-dioxide,304.18,73.8,10.6,0.09433962264150944,1.7,4.643766937669376,0.0012402
517.11,345.17,8600.9,0.00011627,23.546,27.559,88.539,39.913,63.059,403.79,0.11493,36.35,0.054108,supercritical,CO2,C124389,carbon-dioxide,304.18,73.8,10.6,0.09433962264150944,1.7,4.67710027100271,0.001232462
517.11,347.62,8655.0,0.00011554,23.525,27.541,88.45,39.924,63.123,404.8,0.11381,36.486,0.05429,supercritical,CO2,C124389,carbon-dioxide,304.18,73.8,10.6,0.09433962264150944,1.7,4.71029810298103,0.001224724
517.11,350.08,8708.7,0.00011483,23.504,27.524,88.361,39.936,63.186,405.8,0.11269,36.621,0.054473,supercritical,CO2,C124389,carbon-dioxide,304.18,73.8,10.6,0.09433962264150944,1.7,4.743631436314363,0.0012171979999999998
517.11,352.54,8762.3,0.00011413,23.483,27.506,88.273,39.947,63.248,406.82,0.11158,36.757,0.054656,supercritical,CO2,C124389,carbon-dioxide,304.18,73.8,10.6,0.09433962264150944,1.7,4.776964769647697,0.001209778
517.11,355.0,8815.6,0.00011344,23.462,27.489,88.186,39.958,63.308,407.83,0.11048,36.894,0.054838,supercritical,CO2,C124389,carbon-dioxide,304.18,73.8,10.6,0.09433962264150944,1.7,4.81029810298103,0.0012024639999999999
517.11,357.46,8868.7,0.00011276,23.441,27.472,88.099,39.969,63.367,408.85,0.10939,37.03,0.05502,supercritical,CO2,C124389,carbon-dioxide,304.18,73.8,10.6,0.09433962264150944,1.7,4.843631436314363,0.0011952559999999998
517.11,359.92,8921.6,0.00011209,23.421,27.455,88.013,39.98,63.426,409.88,0.10831,37.168,0.055202,supercritical,CO2,C124389,carbon-dioxide,304.18,73.8,10.6,0.09433962264150944,1.7,4.876964769647697,0.001188154
517.11,362.37,8974.2,0.00011143,23.4,27.438,87.927,39.991,63.483,410.91,0.10724,37.305,0.055385,supercritical,CO2,C124389,carbon-dioxide,304.18,73.8,10.6,0.09433962264150944,1.7,4.910162601626016,0.0011811579999999999
517.11,364.83,9026.6,0.00011078,23.38,27.421,87.842,40.001,63.539,411.94,0.10617,37.443,0.055567,supercritical,CO2,C124389,carbon-dioxide,304.18,73.8,10.6,0.09433962264150944,1.7,4.9434959349593495,0.001174268
517.11,367.29,9078.8,0.00011015,23.359,27.405,87.757,40.012,63.594,412.98,0.10512,37.581,0.055748,supercritical,CO2,C124389,carbon-dioxide,304.18,73.8,10.6,0.09433962264150944,1.7,4.976829268292684,0.0011675899999999998
517.11,369.75,9130.7,0.00010952,23.339,27.388,87.674,40.022,63.648,414.03,0.10407,37.72,0.05593,supercritical,CO2,C124389,carbon-dioxide,304.18,73.8,10.6,0.09433962264150944,1.7,5.010162601626017,0.0011609119999999998
517.11,372.21,9182.4,0.0001089,23.319,27.372,87.59,40.033,63.7,415.07,0.10303,37.859,0.056112,supercritical,CO2,C124389,carbon-dioxide,304.18,73.8,10.6,0.09433962264150944,1.7,5.043495934959349,0.00115434
517.11,374.67,9233.9,0.0001083,23.299,27.356,87.508,40.043,63.752,416.13,0.102,37.998,0.056293,supercritical,CO2,C124389,carbon-dioxide,304.18,73.8,10.6,0.09433962264150944,1.7,5.076829268292683,0.00114798
517.11,377.12,9285.1,0.0001077,23.279,27.34,87.426,40.053,63.803,417.18,0.10097,38.137,0.056474,supercritical,CO2,C124389,carbon-dioxide,304.18,73.8,10.6,0.09433962264150944,1.7,5.110027100271003,0.0011416199999999999
517.11,379.58,9336.1,0.00010711,23.259,27.324,87.344,40.063,63.852,418.24,0.099957,38.277,0.056655,supercritical,CO2,C124389,carbon-dioxide,304.18,73.8,10.6,0.09433962264150944,1.7,5.143360433604336,0.0011353659999999998
517.11,382.04,9386.9,0.00010653,23.239,27.309,87.263,40.073,63.901,419.3,0.09895,38.417,0.056836,supercritical,CO2,C124389,carbon-dioxide,304.18,73.8,10.6,0.09433962264150944,1.7,5.17669376693767,0.001129218
517.11,384.5,9437.5,0.00010596,23.219,27.293,87.183,40.082,63.948,420.37,0.097952,38.558,0.057017,supercritical,CO2,C124389,carbon-dioxide,304.18,73.8,10.6,0.09433962264150944,1.7,5.210027100271003,0.0011231759999999998
517.11,386.96,9487.8,0.0001054,23.2,27.278,87.103,40.092,63.995,421.44,0.096961,38.698,0.057197,supercritical,CO2,C124389,carbon-dioxide,304.18,73.8,10.6,0.09433962264150944,1.7,5.243360433604336,0.00111724
517.11,389.42,9537.9,0.00010485,23.18,27.263,87.023,40.102,64.04,422.51,0.095979,38.839,0.057377,supercritical,CO2,C124389,carbon-dioxide,304.18,73.8,10.6,0.09433962264150944,1.7,5.27669376693767,0.00111141
517.11,391.88,9587.7,0.0001043,23.161,27.248,86.945,40.111,64.085,423.59,0.095004,38.981,0.057557,supercritical,CO2,C124389,carbon-dioxide,304.18,73.8,10.6,0.09433962264150944,1.7,5.310027100271003,0.0011055799999999999
517.11,394.33,9637.4,0.00010376,23.141,27.233,86.866,40.121,64.129,424.67,0.094038,39.122,0.057737,supercritical,CO2,C124389,carbon-dioxide,304.18,73.8,10.6,0.09433962264150944,1.7,5.343224932249322,0.001099856
517.11,396.79,9686.7,0.00010323,23.122,27.218,86.789,40.13,64.171,425.75,0.09308,39.264,0.057916,supercritical,CO2,C124389,carbon-dioxide,304.18,73.8,10.6,0.09433962264150944,1.7,5.3765582655826565,0.001094238
517.11,399.25,9735.9,0.00010271,23.103,27.204,86.711,40.139,64.213,426.84,0.092129,39.406,0.058095,supercritical,CO2,C124389,carbon-dioxide,304.18,73.8,10.6,0.09433962264150944,1.7,5.40989159891599,0.001088726
517.11,401.71,9784.8,0.0001022,23.084,27.189,86.635,40.148,64.253,427.93,0.091187,39.548,0.058274,supercritical,CO2,C124389,carbon-dioxide,304.18,73.8,10.6,0.09433962264150944,1.7,5.443224932249322,0.00108332
517.11,404.17,9833.5,0.00010169,23.065,27.175,86.559,40.157,64.293,429.02,0.090252,39.69,0.058453,supercritical,CO2,C124389,carbon-dioxide,304.18,73.8,10.6,0.09433962264150944,1.7,5.476558265582656,0.001077914
517.11,406.63,9882.0,0.00010119,23.046,27.161,86.483,40.166,64.332,430.12,0.089325,39.833,0.058631,supercritical,CO2,C124389,carbon-dioxide,304.18,73.8,10.6,0.09433962264150944,1.7,5.509891598915989,0.001072614
517.11,409.08,9930.3,0.0001007,23.027,27.147,86.408,40.175,64.37,431.22,0.088406,39.975,0.058809,supercritical,CO2,C124389,carbon-dioxide,304.18,73.8,10.6,0.09433962264150944,1.7,5.543089430894309,0.00106742
517.11,411.54,9978.3,0.00010022,23.008,27.133,86.333,40.184,64.407,432.32,0.087495,40.118,0.058987,supercritical,CO2,C124389,carbon-dioxide,304.18,73.8,10.6,0.09433962264150944,1.7,5.576422764227643,0.0010623319999999998
517.11,414.0,10026.0,9.974e-05,22.99,27.119,86.259,40.193,64.443,433.42,0.086591,40.262,0.059165,supercritical,CO2,C124389,carbon-dioxide,304.18,73.8,10.6,0.09433962264150944,1.7,5.609756097560976,0.001057244
517.11,416.46,10074.0,9.9269e-05,22.971,27.105,86.185,40.201,64.478,434.53,0.085695,40.405,0.059342,supercritical,CO2,C124389,carbon-dioxide,304.18,73.8,10.6,0.09433962264150944,1.7,5.6430894308943085,0.0010522513999999998
517.11,418.92,10121.0,9.8805e-05,22.953,27.092,86.112,40.21,64.513,435.64,0.084806,40.548,0.059519,supercritical,CO2,C124389,carbon-dioxide,304.18,73.8,10.6,0.09433962264150944,1.7,5.676422764227643,0.001047333
517.11,421.38,10168.0,9.8347e-05,22.934,27.078,86.039,40.218,64.546,436.75,0.083925,40.692,0.059696,supercritical,CO2,C124389,carbon-dioxide,304.18,73.8,10.6,0.09433962264150944,1.7,5.709756097560976,0.0010424782
517.11,423.83,10215.0,9.7896e-05,22.916,27.065,85.967,40.227,64.579,437.87,0.083051,40.836,0.059872,supercritical,CO2,C124389,carbon-dioxide,304.18,73.8,10.6,0.09433962264150944,1.7,5.742953929539295,0.0010376976
517.11,426.29,10262.0,9.7451e-05,22.898,27.052,85.895,40.235,64.611,438.98,0.082185,40.98,0.060048,supercritical,CO2,C124389,carbon-dioxide,304.18,73.8,10.6,0.09433962264150944,1.7,5.776287262872629,0.0010329806
517.11,428.75,10308.0,9.7012e-05,22.88,27.039,85.824,40.243,64.642,440.1,0.081325,41.124,0.060224,supercritical,CO2,C124389,carbon-dioxide,304.18,73.8,10.6,0.09433962264150944,1.7,5.809620596205963,0.0010283272
517.11,431.21,10354.0,9.6579e-05,22.862,27.026,85.753,40.251,64.672,441.23,0.080474,41.268,0.060399,supercritical,CO2,C124389,carbon-dioxide,304.18,73.8,10.6,0.09433962264150944,1.7,5.842953929539295,0.0010237374
517.11,433.67,10400.0,9.6152e-05,22.844,27.013,85.682,40.259,64.701,442.35,0.079629,41.413,0.060574,supercritical,CO2,C124389,carbon-dioxide,304.18,73.8,10.6,0.09433962264150944,1.7,5.876287262872629,0.0010192112
517.11,436.13,10446.0,9.573e-05,22.826,27.001,85.612,40.267,64.73,443.47,0.078792,41.557,0.060748,supercritical,CO2,C124389,carbon-dioxide,304.18,73.8,10.6,0.09433962264150944,1.7,5.909620596205962,0.001014738
517.11,438.58,10492.0,9.5315e-05,22.808,26.988,85.543,40.275,64.758,444.6,0.077961,41.702,0.060923,supercritical,CO2,C124389,carbon-dioxide,304.18,73.8,10.6,0.09433962264150944,1.7,5.942818428184282,0.001010339
517.11,441.04,10537.0,9.4905e-05,22.79,26.976,85.474,40.283,64.785,445.73,0.077138,41.846,0.061097,supercritical,CO2,C124389,carbon-dioxide,304.18,73.8,10.6,0.09433962264150944,1.7,5.976151761517616,0.001005993
517.11,443.5,10582.0,9.45e-05,22.773,26.964,85.405,40.291,64.811,446.86,0.076322,41.991,0.06127,supercritical,CO2,C124389,carbon-dioxide,304.18,73.8,10.6,0.09433962264150944,1.7,6.009485094850949,0.0010017
517.11,445.96,10627.0,9.4101e-05,22.755,26.952,85.337,40.299,64.837,448.0,0.075513,42.136,0.061444,supercritical,CO2,C124389,carbon-dioxide,304.18,73.8,10.6,0.09433962264150944,1.7,6.042818428184281,0.0009974705999999999
517.11,448.42,10672.0,9.3707e-05,22.738,26.94,85.269,40.306,64.862,449.13,0.07471,42.281,0.061617,supercritical,CO2,C124389,carbon-dioxide,304.18,73.8,10.6,0.09433962264150944,1.7,6.0761517615176155,0.0009932941999999999
517.11,450.88,10716.0,9.3318e-05,22.72,26.928,85.202,40.314,64.886,450.27,0.073915,42.426,0.061789,supercritical,CO2,C124389,carbon-dioxide,304.18,73.8,10.6,0.09433962264150944,1.7,6.109485094850949,0.0009891708