Temperature (K),Pressure (bar),Density (mol/m3),Volume (m3/mol),Internal Energy (kJ/mol),Enthalpy (kJ/mol),Entropy (J/mol*K),Cv (J/mol*K),Cp (J/mol*K),Sound Spd. (m/s),Joule-Thomson (K/bar),Viscosity (uPa*s),Therm. Cond. (W/m*K),Phase,substance,substance_id,substance_name,Tc,Pc,rhoc,Vmc,Tr,Pr,Vmr
486.69,1119.5,18742.0,5.3357e-05,18.276,24.25,71.044,41.374,64.535,762.86,-0.014175,83.865,0.10245,supercritical,CO2,C124389,carbon-dioxide,304.18,73.8,10.6,0.09433962264150944,1.6,15.169376693766939,0.0005655841999999999
486.69,1122.0,18757.0,5.3314e-05,18.27,24.252,71.022,41.378,64.526,763.79,-0.014277,83.987,0.10256,supercritical,CO2,C124389,carbon-dioxide,304.18,73.8,10.6,0.09433962264150944,1.6,15.203252032520325,0.0005651284
486.69,1124.5,18772.0,5.3272e-05,18.264,24.254,71.0,41.383,64.517,764.71,-0.014378,84.108,0.10268,supercritical,CO2,C124389,carbon-dioxide,304.18,73.8,10.6,0.09433962264150944,1.6,15.237127371273713,0.0005646831999999999
486.69,1126.9,18786.0,5.323e-05,18.258,24.257,70.978,41.387,64.508,765.63,-0.014479,84.23,0.1028,supercritical,CO2,C124389,carbon-dioxide,304.18,73.8,10.6,0.09433962264150944,1.6,15.269647696476966,0.0005642379999999999
486.69,1129.4,18801.0,5.3188e-05,18.252,24.259,70.956,41.392,64.5,766.55,-0.014579,84.351,0.10291,supercritical,CO2,C124389,carbon-dioxide,304.18,73.8,10.6,0.09433962264150944,1.6,15.303523035230354,0.0005637928
486.69,1131.8,18816.0,5.3146e-05,18.246,24.261,70.933,41.397,64.491,767.47,-0.014678,84.472,0.10303,supercritical,CO2,C124389,carbon-dioxide,304.18,73.8,10.6,0.09433962264150944,1.6,15.336043360433605,0.0005633476
486.69,1134.3,18831.0,5.3104e-05,18.24,24.264,70.911,41.401,64.482,768.38,-0.014777,84.593,0.10314,supercritical,CO2,C124389,carbon-dioxide,304.18,73.8,10.6,0.09433962264150944,1.6,15.369918699186991,0.0005629023999999999
486.69,1136.7,18846.0,5.3063e-05,18.234,24.266,70.889,41.406,64.474,769.3,-0.014875,84.714,0.10326,supercritical,CO2,C124389,carbon-dioxide,304.18,73.8,10.6,0.09433962264150944,1.6,15.402439024390246,0.0005624677999999999
486.69,1139.2,18860.0,5.3022e-05,18.228,24.268,70.867,41.41,64.465,770.21,-0.014973,84.835,0.10337,supercritical,CO2,C124389,carbon-dioxide,304.18,73.8,10.6,0.09433962264150944,1.6,15.436314363143632,0.0005620331999999999
486.69,1141.7,18875.0,5.298e-05,18.222,24.271,70.846,41.415,64.457,771.12,-0.01507,84.956,0.10349,supercritical,CO2,C124389,carbon-dioxide,304.18,73.8,10.6,0.09433962264150944,1.6,15.47018970189702,0.0005615879999999999
486.69,1144.1,18889.0,5.2939e-05,18.216,24.273,70.824,41.42,64.448,772.03,-0.015166,85.077,0.1036,supercritical,CO2,C124389,carbon-dioxide,304.18,73.8,10.6,0.09433962264150944,1.6,15.502710027100271,0.0005611534
486.69,1146.6,18904.0,5.2899e-05,18.21,24.276,70.802,41.424,64.44,772.94,-0.015262,85.197,0.10372,supercritical,CO2,C124389,carbon-dioxide,304.18,73.8,10.6,0.09433962264150944,1.6,15.536585365853657,0.0005607294
486.69,1149.0,18919.0,5.2858e-05,18.204,24.278,70.78,41.429,64.432,773.85,-0.015358,85.318,0.10383,supercritical,CO2,C124389,carbon-dioxide,304.18,73.8,10.6,0.09433962264150944,1.6,15.569105691056912,0.0005602948
486.69,1151.5,18933.0,5.2818e-05,18.198,24.28,70.759,41.434,64.423,774.76,-0.015453,85.438,0.10395,supercritical,CO2,C124389,carbon-dioxide,304.18,73.8,10.6,0.09433962264150944,1.6,15.602981029810298,0.0005598708
486.69,1154.0,18948.0,5.2777e-05,18.193,24.283,70.737,41.438,64.415,775.66,-0.015547,85.558,0.10406,supercritical,CO2,C124389,carbon-dioxide,304.18,73.8,10.6,0.09433962264150944,1.6,15.636856368563686,0.0005594361999999999
486.69,1156.4,18962.0,5.2737e-05,18.187,24.285,70.715,41.443,64.407,776.57,-0.015641,85.679,0.10418,supercritical,CO2,C124389,carbon-dioxide,304.18,73.8,10.6,0.09433962264150944,1.6,15.669376693766939,0.0005590122
486.69,1158.9,18976.0,5.2697e-05,18.181,24.288,70.694,41.447,64.399,777.47,-0.015734,85.799,0.10429,supercritical,CO2,C124389,carbon-dioxide,304.18,73.8,10.6,0.09433962264150944,1.6,15.703252032520327,0.0005585882
486.69,1161.3,18991.0,5.2657e-05,18.175,24.29,70.672,41.452,64.39,778.37,-0.015827,85.919,0.10441,supercritical,CO2,C124389,carbon-dioxide,304.18,73.8,10.6,0.09433962264150944,1.6,15.735772357723578,0.0005581642
486.69,1163.8,19005.0,5.2618e-05,18.169,24.293,70.651,41.457,64.382,779.27,-0.01592,86.039,0.10452,supercritical,CO2,C124389,carbon-dioxide,304.18,73.8,10.6,0.09433962264150944,1.6,15.769647696476964,0.0005577507999999999
486.69,1166.2,19019.0,5.2578e-05,18.163,24.295,70.63,41.461,64.374,780.17,-0.016011,86.158,0.10463,supercritical,CO2,C124389,carbon-dioxide,304.18,73.8,10.6,0.09433962264150944,1.6,15.802168021680219,0.0005573268
486.69,1168.7,19033.0,5.2539e-05,18.158,24.298,70.608,41.466,64.366,781.07,-0.016103,86.278,0.10475,supercritical,CO2,C124389,carbon-dioxide,304.18,73.8,10.6,0.09433962264150944,1.6,15.836043360433605,0.0005569133999999999
486.69,1171.2,19048.0,5.25e-05,18.152,24.3,70.587,41.47,64.358,781.96,-0.016193,86.398,0.10486,supercritical,CO2,C124389,carbon-dioxide,304.18,73.8,10.6,0.09433962264150944,1.6,15.869918699186993,0.0005565
486.69,1173.6,19062.0,5.2461e-05,18.146,24.303,70.566,41.475,64.35,782.86,-0.016284,86.517,0.10498,supercritical,CO2,C124389,carbon-dioxide,304.18,73.8,10.6,0.09433962264150944,1.6,15.902439024390244,0.0005560865999999999
486.69,1176.1,19076.0,5.2422e-05,18.14,24.306,70.545,41.48,64.342,783.75,-0.016374,86.637,0.10509,supercritical,CO2,C124389,carbon-dioxide,304.18,73.8,10.6,0.09433962264150944,1.6,15.93631436314363,0.0005556732
486.69,1178.5,19090.0,5.2383e-05,18.135,24.308,70.523,41.484,64.334,784.65,-0.016463,86.756,0.1052,supercritical,CO2,C124389,carbon-dioxide,304.18,73.8,10.6,0.09433962264150944,1.6,15.968834688346885,0.0005552598
486.69,1181.0,19104.0,5.2345e-05,18.129,24.311,70.502,41.489,64.327,785.54,-0.016552,86.875,0.10532,supercritical,CO2,C124389,carbon-dioxide,304.18,73.8,10.6,0.09433962264150944,1.6,16.00271002710027,0.000554857
486.69,1183.5,19118.0,5.2306e-05,18.123,24.313,70.481,41.494,64.319,786.43,-0.01664,86.994,0.10543,supercritical,CO2,C124389,carbon-dioxide,304.18,73.8,10.6,0.09433962264150944,1.6,16.03658536585366,0.0005544435999999999
486.69,1185.9,19132.0,5.2268e-05,18.117,24.316,70.46,41.498,64.311,787.31,-0.016728,87.113,0.10555,supercritical,CO2,C124389,carbon-dioxide,304.18,73.8,10.6,0.09433962264150944,1.6,16.06910569105691,0.0005540408
486.69,1188.4,19146.0,5.223e-05,18.112,24.319,70.439,41.503,64.303,788.2,-0.016815,87.232,0.10566,supercritical,CO2,C124389,carbon-dioxide,304.18,73.8,10.6,0.09433962264150944,1.6,16.1029810298103,0.000553638
486.69,1190.8,19160.0,5.2192e-05,18.106,24.321,70.418,41.507,64.296,789.09,-0.016902,87.351,0.10577,supercritical,CO2,C124389,carbon-dioxide,304.18,73.8,10.6,0.09433962264150944,1.6,16.13550135501355,0.0005532352
486.69,1193.3,19174.0,5.2154e-05,18.101,24.324,70.398,41.512,64.288,789.97,-0.016988,87.47,0.10589,supercritical,CO2,C124389,carbon-dioxide,304.18,73.8,10.6,0.09433962264150944,1.6,16.16937669376694,0.0005528324
486.69,1195.7,19188.0,5.2117e-05,18.095,24.327,70.377,41.517,64.28,790.86,-0.017074,87.589,0.106,supercritical,CO2,C124389,carbon-dioxide,304.18,73.8,10.6,0.09433962264150944,1.6,16.20189701897019,0.0005524402
486.69,1198.2,19201.0,5.2079e-05,18.089,24.329,70.356,41.521,64.273,791.74,-0.01716,87.707,0.10611,supercritical,CO2,C124389,carbon-dioxide,304.18,73.8,10.6,0.09433962264150944,1.6,16.23577235772358,0.0005520373999999999
486.69,1200.7,19215.0,5.2042e-05,18.084,24.332,70.335,41.526,64.265,792.62,-0.017245,87.826,0.10623,supercritical,CO2,C124389,carbon-dioxide,304.18,73.8,10.6,0.09433962264150944,1.6,16.269647696476966,0.0005516452
486.69,1203.1,19229.0,5.2005e-05,18.078,24.335,70.315,41.53,64.258,793.5,-0.017329,87.944,0.10634,supercritical,CO2,C124389,carbon-dioxide,304.18,73.8,10.6,0.09433962264150944,1.6,16.302168021680217,0.0005512529999999999
486.69,1205.6,19243.0,5.1968e-05,18.073,24.338,70.294,41.535,64.25,794.38,-0.017413,88.062,0.10645,supercritical,CO2,C124389,carbon-dioxide,304.18,73.8,10.6,0.09433962264150944,1.6,16.336043360433603,0.0005508608
486.69,1208.0,19256.0,5.1931e-05,18.067,24.34,70.273,41.54,64.243,795.25,-0.017497,88.181,0.10656,supercritical,CO2,C124389,carbon-dioxide,304.18,73.8,10.6,0.09433962264150944,1.6,16.368563685636857,0.0005504686
486.69,1210.5,19270.0,5.1894e-05,18.061,24.343,70.253,41.544,64.235,796.13,-0.01758,88.299,0.10668,supercritical,CO2,C124389,carbon-dioxide,304.18,73.8,10.6,0.09433962264150944,1.6,16.402439024390244,0.0005500764
486.69,1213.0,19284.0,5.1857e-05,18.056,24.346,70.232,41.549,64.228,797.0,-0.017663,88.417,0.10679,supercritical,CO2,C124389,carbon-dioxide,304.18,73.8,10.6,0.09433962264150944,1.6,16.436314363143634,0.0005496842
486.69,1215.4,19297.0,5.1821e-05,18.05,24.349,70.212,41.554,64.22,797.88,-0.017745,88.535,0.1069,supercritical,CO2,C124389,carbon-dioxide,304.18,73.8,10.6,0.09433962264150944,1.6,16.468834688346885,0.0005493026
486.69,1217.9,19311.0,5.1785e-05,18.045,24.352,70.192,41.558,64.213,798.75,-0.017827,88.653,0.10702,supercritical,CO2,C124389,carbon-dioxide,304.18,73.8,10.6,0.09433962264150944,1.6,16.502710027100274,0.000548921
486.69,1220.3,19324.0,5.1748e-05,18.039,24.354,70.171,41.563,64.206,799.62,-0.017909,88.77,0.10713,supercritical,CO2,C124389,carbon-dioxide,304.18,73.8,10.6,0.09433962264150944,1.6,16.535230352303522,0.0005485288
486.69,1222.8,19338.0,5.1712e-05,18.034,24.357,70.151,41.567,64.199,800.49,-0.01799,88.888,0.10724,supercritical,CO2,C124389,carbon-dioxide,304.18,73.8,10.6,0.09433962264150944,1.6,16.56910569105691,0.0005481472
486.69,1225.2,19351.0,5.1676e-05,18.028,24.36,70.131,41.572,64.191,801.36,-0.01807,89.006,0.10735,supercritical,CO2,C124389,carbon-dioxide,304.18,73.8,10.6,0.09433962264150944,1.6,16.601626016260163,0.0005477656
486.69,1227.7,19365.0,5.1641e-05,18.023,24.363,70.11,41.577,64.184,802.22,-0.01815,89.123,0.10746,supercritical,CO2,C124389,carbon-dioxide,304.18,73.8,10.6,0.09433962264150944,1.6,16.635501355013552,0.0005473946
486.69,1230.2,19378.0,5.1605e-05,18.018,24.366,70.09,41.581,64.177,803.09,-0.01823,89.241,0.10758,supercritical,CO2,C124389,carbon-dioxide,304.18,73.8,10.6,0.09433962264150944,1.6,16.66937669376694,0.000547013
486.69,1232.6,19391.0,5.1569e-05,18.012,24.369,70.07,41.586,64.17,803.95,-0.018309,89.358,0.10769,supercritical,CO2,C124389,carbon-dioxide,304.18,73.8,10.6,0.09433962264150944,1.6,16.70189701897019,0.0005466313999999999
486.69,1235.1,19405.0,5.1534e-05,18.007,24.372,70.05,41.591,64.163,804.82,-0.018388,89.475,0.1078,supercritical,CO2,C124389,carbon-dioxide,304.18,73.8,10.6,0.09433962264150944,1.6,16.735772357723576,0.0005462603999999999
486.69,1237.5,19418.0,5.1499e-05,18.001,24.374,70.03,41.595,64.156,805.68,-0.018467,89.592,0.10791,supercritical,CO2,C124389,carbon-dioxide,304.18,73.8,10.6,0.09433962264150944,1.6,16.76829268292683,0.0005458894
486.69,1240.0,19431.0,5.1464e-05,17.996,24.377,70.01,41.6,64.149,806.54,-0.018545,89.71,0.10802,supercritical,CO2,C124389,carbon-dioxide,304.18,73.8,10.6,0.09433962264150944,1.6,16.802168021680217,0.0005455184
486.69,1242.5,19444.0,5.1429e-05,17.991,24.38,69.99,41.604,64.142,807.4,-0.018622,89.827,0.10814,supercritical,CO2,C124389,carbon-dioxide,304.18,73.8,10.6,0.09433962264150944,1.6,16.836043360433607,0.0005451474
486.69,1244.9,19458.0,5.1394e-05,17.985,24.383,69.97,41.609,64.135,808.26,-0.0187,89.943,0.10825,supercritical,CO2,C124389,carbon-dioxide,304.18,73.8,10.6,0.09433962264150944,1.6,16.868563685636857,0.0005447764
486.69,1247.4,19471.0,5.1359e-05,17.98,24.386,69.95,41.614,64.128,809.11,-0.018777,90.06,0.10836,supercritical,CO2,C124389,carbon-dioxide,304.18,73.8,10.6,0.09433962264150944,1.6,16.902439024390247,0.0005444054
486.69,1249.8,19484.0,5.1324e-05,17.974,24.389,69.93,41.618,64.121,809.97,-0.018853,90.177,0.10847,supercritical,CO2,C124389,carbon-dioxide,304.18,73.8,10.6,0.09433962264150944,1.6,16.934959349593495,0.0005440343999999999
486.69,1252.3,19497.0,5.129e-05,17.969,24.392,69.911,41.623,64.114,810.82,-0.018929,90.294,0.10858,supercritical,CO2,C124389,carbon-dioxide,304.18,73.8,10.6,0.09433962264150944,1.6,16.968834688346885,0.000543674
486.69,1254.7,19510.0,5.1255e-05,17.964,24.395,69.891,41.628,64.107,811.68,-0.019005,90.41,0.10869,supercritical,CO2,C124389,carbon-dioxide,304.18,73.8,10.6,0.09433962264150944,1.6,17.001355013550135,0.000543303
486.69,1257.2,19523.0,5.1221e-05,17.959,24.398,69.871,41.632,64.101,812.53,-0.01908,90.527,0.10881,supercritical,CO2,C124389,carbon-dioxide,304.18,73.8,10.6,0.09433962264150944,1.6,17.035230352303525,0.0005429426
486.69,1259.7,19536.0,5.1187e-05,17.953,24.401,69.851,41.637,64.094,813.38,-0.019155,90.643,0.10892,supercritical,CO2,C124389,carbon-dioxide,304.18,73.8,10.6,0.09433962264150944,1.6,17.06910569105691,0.0005425822
486.69,1262.1,19549.0,5.1153e-05,17.948,24.404,69.832,41.641,64.087,814.23,-0.019229,90.76,0.10903,supercritical,CO2,C124389,carbon-dioxide,304.18,73.8,10.6,0.09433962264150944,1.6,17.101626016260163,0.0005422218
486.69,1264.6,19562.0,5.1119e-05,17.943,24.407,69.812,41.646,64.08,815.08,-0.019303,90.876,0.10914,supercritical,CO2,C124389,carbon-dioxide,304.18,73.8,10.6,0.09433962264150944,1.6,17.13550135501355,0.0005418614
486.69,1267.0,19575.0,5.1086e-05,17.938,24.41,69.793,41.651,64.074,815.93,-0.019377,90.992,0.10925,supercritical,CO2,C124389,carbon-dioxide,304.18,73.8,10.6,0.09433962264150944,1.6,17.168021680216803,0.0005415115999999999
486.69,1269.5,19588.0,5.1052e-05,17.932,24.413,69.773,41.655,64.067,816.77,-0.019451,91.108,0.10936,supercritical,CO2,C124389,carbon-dioxide,304.18,73.8,10.6,0.09433962264150944,1.6,17.20189701897019,0.0005411512
486.69,1272.0,19601.0,5.1018e-05,17.927,24.416,69.754,41.66,64.06,817.62,-0.019524,91.224,0.10947,supercritical,CO2,C124389,carbon-dioxide,304.18,73.8,10.6,0.09433962264150944,1.6,17.23577235772358,0.0005407907999999999
486.69,1274.4,19614.0,5.0985e-05,17.922,24.419,69.734,41.665,64.054,818.46,-0.019596,91.34,0.10958,supercritical,CO2,C124389,carbon-dioxide,304.18,73.8,10.6,0.09433962264150944,1.6,17.26829268292683,0.000540441
486.69,1276.9,19626.0,5.0952e-05,17.917,24.423,69.715,41.669,64.047,819.31,-0.019668,91.456,0.10969,supercritical,CO2,C124389,carbon-dioxide,304.18,73.8,10.6,0.09433962264150944,1.6,17.30216802168022,0.0005400912
486.69,1279.3,19639.0,5.0919e-05,17.911,24.426,69.696,41.674,64.041,820.15,-0.01974,91.572,0.1098,supercritical,CO2,C124389,carbon-dioxide,304.18,73.8,10.6,0.09433962264150944,1.6,17.334688346883468,0.0005397414
486.69,1281.8,19652.0,5.0886e-05,17.906,24.429,69.676,41.678,64.034,820.99,-0.019812,91.688,0.10992,supercritical,CO2,C124389,carbon-dioxide,304.18,73.8,10.6,0.09433962264150944,1.6,17.368563685636857,0.0005393916
486.69,1284.2,19665.0,5.0853e-05,17.901,24.432,69.657,41.683,64.028,821.83,-0.019883,91.803,0.11003,supercritical,CO2,C124389,carbon-dioxide,304.18,73.8,10.6,0.09433962264150944,1.6,17.40108401084011,0.0005390418
486.69,1286.7,19677.0,5.082e-05,17.896,24.435,69.638,41.688,64.021,822.67,-0.019954,91.919,0.11014,supercritical,CO2,C124389,carbon-dioxide,304.18,73.8,10.6,0.09433962264150944,1.6,17.4349593495935,0.0005386919999999999
486.69,1289.2,19690.0,5.0787e-05,17.891,24.438,69.619,41.692,64.015,823.5,-0.020024,92.034,0.11025,supercritical,CO2,C124389,carbon-dioxide,304.18,73.8,10.6,0.09433962264150944,1.6,17.468834688346885,0.0005383422
486.69,1291.6,19703.0,5.0755e-05,17.886,24.441,69.599,41.697,64.009,824.34,-0.020094,92.15,0.11036,supercritical,CO2,C124389,carbon-dioxide,304.18,73.8,10.6,0.09433962264150944,1.6,17.501355013550135,0.0005380029999999999
486.69,1294.1,19715.0,5.0722e-05,17.881,24.445,69.58,41.702,64.002,825.18,-0.020164,92.265,0.11047,supercritical,CO2,C124389,carbon-dioxide,304.18,73.8,10.6,0.09433962264150944,1.6,17.535230352303522,0.0005376532
486.69,1296.5,19728.0,5.069e-05,17.876,24.448,69.561,41.706,63.996,826.01,-0.020233,92.38,0.11058,supercritical,CO2,C124389,carbon-dioxide,304.18,73.8,10.6,0.09433962264150944,1.6,17.567750677506776,0.0005373139999999999
486.69,1299.0,19740.0,5.0658e-05,17.87,24.451,69.542,41.711,63.99,826.84,-0.020302,92.495,0.11069,supercritical,CO2,C124389,carbon-dioxide,304.18,73.8,10.6,0.09433962264150944,1.6,17.601626016260163,0.0005369748
486.69,1301.5,19753.0,5.0626e-05,17.865,24.454,69.523,41.715,63.984,827.67,-0.020371,92.611,0.1108,supercritical,CO2,C124389,carbon-dioxide,304.18,73.8,10.6,0.09433962264150944,1.6,17.635501355013552,0.0005366355999999999
486.69,1303.9,19765.0,5.0594e-05,17.86,24.457,69.504,41.72,63.977,828.5,-0.020439,92.726,0.11091,supercritical,CO2,C124389,carbon-dioxide,304.18,73.8,10.6,0.09433962264150944,1.6,17.668021680216803,0.0005362963999999999
486.69,1306.4,19778.0,5.0562e-05,17.855,24.461,69.485,41.725,63.971,829.33,-0.020507,92.841,0.11102,supercritical,CO2,C124389,carbon-dioxide,304.18,73.8,10.6,0.09433962264150944,1.6,17.701897018970193,0.0005359572
486.69,1308.8,19790.0,5.053e-05,17.85,24.464,69.466,41.729,63.965,830.16,-0.020575,92.955,0.11113,supercritical,CO2,C124389,carbon-dioxide,304.18,73.8,10.6,0.09433962264150944,1.6,17.73441734417344,0.000535618
486.69,1311.3,19803.0,5.0498e-05,17.845,24.467,69.447,41.734,63.959,830.99,-0.020642,93.07,0.11124,supercritical,CO2,C124389,carbon-dioxide,304.18,73.8,10.6,0.09433962264150944,1.6,17.76829268292683,0.0005352788
486.69,1313.7,19815.0,5.0467e-05,17.84,24.47,69.429,41.739,63.953,831.81,-0.020709,93.185,0.11135,supercritical,CO2,C124389,carbon-dioxide,304.18,73.8,10.6,0.09433962264150944,1.6,17.80081300813008,0.0005349502
486.69,1316.2,19827.0,5.0435e-05,17.835,24.473,69.41,41.743,63.947,832.64,-0.020776,93.3,0.11146,supercritical,CO2,C124389,carbon-dioxide,304.18,73.8,10.6,0.09433962264150944,1.6,17.83468834688347,0.0005346109999999999
486.69,1318.7,19840.0,5.0404e-05,17.83,24.477,69.391,41.748,63.941,833.46,-0.020842,93.414,0.11157,supercritical,CO2,C124389,carbon-dioxide,304.18,73.8,10.6,0.09433962264150944,1.6,17.868563685636857,0.0005342824
486.69,1321.1,19852.0,5.0373e-05,17.825,24.48,69.372,41.752,63.935,834.28,-0.020908,93.529,0.11168,supercritical,CO2,C124389,carbon-dioxide,304.18,73.8,10.6,0.09433962264150944,1.6,17.90108401084011,0.0005339537999999999
486.69,1323.6,19864.0,5.0341e-05,17.82,24.483,69.354,41.757,63.929,835.11,-0.020974,93.643,0.11179,supercritical,CO2,C124389,carbon-dioxide,304.18,73.8,10.6,0.09433962264150944,1.6,17.934959349593495,0.0005336146
486.69,1326.0,19877.0,5.031e-05,17.815,24.487,69.335,41.762,63.923,835.93,-0.021039,93.758,0.1119,supercritical,CO2,C124389,carbon-dioxide,304.18,73.8,10.6,0.09433962264150944,1.6,17.96747967479675,0.0005332859999999999
486.69,1328.5,19889.0,5.028e-05,17.81,24.49,69.316,41.766,63.917,836.75,-0.021104,93.872,0.11201,supercritical,CO2,C124389,carbon-dioxide,304.18,73.8,10.6,0.09433962264150944,1.6,18.001355013550135,0.000532968
486.69,1331.0,19901.0,5.0249e-05,17.805,24.493,69.298,41.771,63.911,837.56,-0.021169,93.986,0.11212,supercritical,CO2,C124389,carbon-dioxide,304.18,73.8,10.6,0.09433962264150944,1.6,18.035230352303525,0.0005326393999999999
486.69,1333.4,19913.0,5.0218e-05,17.8,24.497,69.279,41.776,63.905,838.38,-0.021234,94.1,0.11222,supercritical,CO2,C124389,carbon-dioxide,304.18,73.8,10.6,0.09433962264150944,1.6,18.067750677506776,0.0005323108
486.69,1335.9,19925.0,5.0187e-05,17.796,24.5,69.261,41.78,63.899,839.2,-0.021298,94.214,0.11233,supercritical,CO2,C124389,carbon-dioxide,304.18,73.8,10.6,0.09433962264150944,1.6,18.101626016260166,0.0005319821999999999
486.69,1338.3,19937.0,5.0157e-05,17.791,24.503,69.242,41.785,63.893,840.01,-0.021361,94.328,0.11244,supercritical,CO2,C124389,carbon-dioxide,304.18,73.8,10.6,0.09433962264150944,1.6,18.134146341463413,0.0005316642
486.69,1340.8,19950.0,5.0126e-05,17.786,24.507,69.224,41.789,63.887,840.83,-0.021425,94.442,0.11255,supercritical,CO2,C124389,carbon-dioxide,304.18,73.8,10.6,0.09433962264150944,1.6,18.168021680216803,0.0005313356