Temperature (K),Pressure (bar),Density (mol/m3),Volume (m3/mol),Internal Energy (kJ/mol),Enthalpy (kJ/mol),Entropy (J/mol*K),Cv (J/mol*K),Cp (J/mol*K),Sound Spd. (m/s),Joule-Thomson (K/bar),Viscosity (uPa*s),Therm. Cond. (W/m*K),Phase,substance,substance_id,substance_name,Tc,Pc,rhoc,Vmc,Tr,Pr,Vmr
170.04,637.09,30730.0,3.2541e-05,-1.2924,0.78074,119.19,26.646,47.169,807.99,-0.031474,101.85,0.11933,supercritical,O2,C7782447,oxygen,154.58,50.43,13.6,0.07352941176470588,1.1,12.633154868134048,0.0004425576
170.04,638.46,30742.0,3.2529e-05,-1.2941,0.78277,119.18,26.65,47.156,808.64,-0.031523,101.97,0.11943,supercritical,O2,C7782447,oxygen,154.58,50.43,13.6,0.07352941176470588,1.1,12.660321237358716,0.0004423944
170.04,639.82,30753.0,3.2517e-05,-1.2957,0.7848,119.16,26.654,47.144,809.3,-0.031572,102.09,0.11954,supercritical,O2,C7782447,oxygen,154.58,50.43,13.6,0.07352941176470588,1.1,12.68728931191751,0.0004422312
170.04,641.18,30765.0,3.2505e-05,-1.2973,0.78683,119.15,26.658,47.132,809.95,-0.031621,102.21,0.11965,supercritical,O2,C7782447,oxygen,154.58,50.43,13.6,0.07352941176470588,1.1,12.714257386476303,0.000442068
170.04,642.55,30776.0,3.2493e-05,-1.2989,0.78887,119.13,26.662,47.119,810.6,-0.03167,102.33,0.11975,supercritical,O2,C7782447,oxygen,154.58,50.43,13.6,0.07352941176470588,1.1,12.741423755700971,0.0004419048
170.04,643.91,30788.0,3.2481e-05,-1.3006,0.79091,119.12,26.665,47.107,811.26,-0.031719,102.45,0.11986,supercritical,O2,C7782447,oxygen,154.58,50.43,13.6,0.07352941176470588,1.1,12.768391830259766,0.00044174160000000004
170.04,645.28,30799.0,3.2469e-05,-1.3022,0.79295,119.11,26.669,47.095,811.91,-0.031767,102.56,0.11996,supercritical,O2,C7782447,oxygen,154.58,50.43,13.6,0.07352941176470588,1.1,12.795558199484434,0.00044157839999999995
170.04,646.64,30810.0,3.2457e-05,-1.3038,0.79499,119.09,26.673,47.083,812.56,-0.031815,102.68,0.12007,supercritical,O2,C7782447,oxygen,154.58,50.43,13.6,0.07352941176470588,1.1,12.822526274043229,0.0004414152
170.04,648.01,30822.0,3.2445e-05,-1.3054,0.79704,119.08,26.677,47.071,813.2,-0.031863,102.8,0.12018,supercritical,O2,C7782447,oxygen,154.58,50.43,13.6,0.07352941176470588,1.1,12.849692643267897,0.00044125199999999994
170.04,649.38,30833.0,3.2433e-05,-1.307,0.79909,119.06,26.681,47.059,813.85,-0.031911,102.92,0.12028,supercritical,O2,C7782447,oxygen,154.58,50.43,13.6,0.07352941176470588,1.1,12.876859012492565,0.00044108879999999996
170.04,650.74,30845.0,3.2421e-05,-1.3086,0.80114,119.05,26.685,47.047,814.5,-0.031958,103.04,0.12039,supercritical,O2,C7782447,oxygen,154.58,50.43,13.6,0.07352941176470588,1.1,12.903827087051358,0.0004409256
170.04,652.11,30856.0,3.2409e-05,-1.3102,0.80319,119.04,26.689,47.035,815.14,-0.032006,103.16,0.12049,supercritical,O2,C7782447,oxygen,154.58,50.43,13.6,0.07352941176470588,1.1,12.930993456276026,0.0004407624
170.04,653.47,30867.0,3.2397e-05,-1.3118,0.80525,119.02,26.692,47.023,815.79,-0.032053,103.28,0.1206,supercritical,O2,C7782447,oxygen,154.58,50.43,13.6,0.07352941176470588,1.1,12.95796153083482,0.00044059920000000003
170.04,654.84,30878.0,3.2385e-05,-1.3134,0.80731,119.01,26.696,47.011,816.43,-0.0321,103.4,0.1207,supercritical,O2,C7782447,oxygen,154.58,50.43,13.6,0.07352941176470588,1.1,12.985127900059489,0.000440436
170.04,656.2,30890.0,3.2373e-05,-1.315,0.80937,118.99,26.7,46.999,817.08,-0.032146,103.52,0.12081,supercritical,O2,C7782447,oxygen,154.58,50.43,13.6,0.07352941176470588,1.1,13.012095974618283,0.0004402728
170.04,657.57,30901.0,3.2361e-05,-1.3165,0.81143,118.98,26.704,46.988,817.72,-0.032193,103.64,0.12091,supercritical,O2,C7782447,oxygen,154.58,50.43,13.6,0.07352941176470588,1.1,13.039262343842951,0.00044010959999999993
170.04,658.93,30912.0,3.235e-05,-1.3181,0.8135,118.97,26.708,46.976,818.36,-0.032239,103.76,0.12102,supercritical,O2,C7782447,oxygen,154.58,50.43,13.6,0.07352941176470588,1.1,13.066230418401744,0.00043996
170.04,660.29,30923.0,3.2338e-05,-1.3197,0.81557,118.95,26.712,46.964,819.0,-0.032285,103.88,0.12112,supercritical,O2,C7782447,oxygen,154.58,50.43,13.6,0.07352941176470588,1.1,13.09319849296054,0.0004397968
170.04,661.66,30935.0,3.2326e-05,-1.3213,0.81764,118.94,26.715,46.953,819.64,-0.032331,103.99,0.12123,supercritical,O2,C7782447,oxygen,154.58,50.43,13.6,0.07352941176470588,1.1,13.120364862185207,0.0004396336
170.04,663.02,30946.0,3.2315e-05,-1.3228,0.81971,118.93,26.719,46.941,820.28,-0.032376,104.11,0.12133,supercritical,O2,C7782447,oxygen,154.58,50.43,13.6,0.07352941176470588,1.1,13.147332936744002,0.00043948399999999997
170.04,664.39,30957.0,3.2303e-05,-1.3244,0.82179,118.91,26.723,46.93,820.92,-0.032422,104.23,0.12144,supercritical,O2,C7782447,oxygen,154.58,50.43,13.6,0.07352941176470588,1.1,13.17449930596867,0.0004393208
170.04,665.75,30968.0,3.2291e-05,-1.326,0.82386,118.9,26.727,46.918,821.55,-0.032467,104.35,0.12154,supercritical,O2,C7782447,oxygen,154.58,50.43,13.6,0.07352941176470588,1.1,13.201467380527465,0.00043915759999999996
170.04,667.12,30979.0,3.228e-05,-1.3275,0.82594,118.88,26.731,46.907,822.19,-0.032512,104.47,0.12164,supercritical,O2,C7782447,oxygen,154.58,50.43,13.6,0.07352941176470588,1.1,13.228633749752133,0.000439008
170.04,668.49,30990.0,3.2268e-05,-1.3291,0.82803,118.87,26.734,46.896,822.82,-0.032557,104.59,0.12175,supercritical,O2,C7782447,oxygen,154.58,50.43,13.6,0.07352941176470588,1.1,13.2558001189768,0.0004388447999999999
170.04,669.85,31001.0,3.2257e-05,-1.3306,0.83011,118.86,26.738,46.885,823.46,-0.032601,104.71,0.12185,supercritical,O2,C7782447,oxygen,154.58,50.43,13.6,0.07352941176470588,1.1,13.282768193535594,0.0004386952
170.04,671.22,31012.0,3.2245e-05,-1.3322,0.8322,118.84,26.742,46.873,824.09,-0.032646,104.83,0.12196,supercritical,O2,C7782447,oxygen,154.58,50.43,13.6,0.07352941176470588,1.1,13.309934562760262,0.000438532
170.04,672.58,31023.0,3.2234e-05,-1.3337,0.83429,118.83,26.746,46.862,824.72,-0.03269,104.94,0.12206,supercritical,O2,C7782447,oxygen,154.58,50.43,13.6,0.07352941176470588,1.1,13.336902637319056,0.00043838239999999994
170.04,673.95,31034.0,3.2223e-05,-1.3352,0.83638,118.82,26.75,46.851,825.36,-0.032734,105.06,0.12216,supercritical,O2,C7782447,oxygen,154.58,50.43,13.6,0.07352941176470588,1.1,13.364069006543724,0.0004382328
170.04,675.31,31045.0,3.2211e-05,-1.3368,0.83848,118.8,26.753,46.84,825.99,-0.032777,105.18,0.12227,supercritical,O2,C7782447,oxygen,154.58,50.43,13.6,0.07352941176470588,1.1,13.391037081102517,0.0004380696
170.04,676.67,31056.0,3.22e-05,-1.3383,0.84057,118.79,26.757,46.829,826.62,-0.032821,105.3,0.12237,supercritical,O2,C7782447,oxygen,154.58,50.43,13.6,0.07352941176470588,1.1,13.418005155661312,0.00043791999999999995
170.04,678.04,31067.0,3.2189e-05,-1.3398,0.84267,118.78,26.761,46.818,827.25,-0.032864,105.42,0.12247,supercritical,O2,C7782447,oxygen,154.58,50.43,13.6,0.07352941176470588,1.1,13.44517152488598,0.0004377704
170.04,679.4,31078.0,3.2177e-05,-1.3414,0.84477,118.76,26.765,46.807,827.87,-0.032908,105.53,0.12258,supercritical,O2,C7782447,oxygen,154.58,50.43,13.6,0.07352941176470588,1.1,13.472139599444775,0.0004376072
170.04,680.77,31089.0,3.2166e-05,-1.3429,0.84688,118.75,26.768,46.796,828.5,-0.032951,105.65,0.12268,supercritical,O2,C7782447,oxygen,154.58,50.43,13.6,0.07352941176470588,1.1,13.499305968669443,0.0004374575999999999
170.04,682.13,31100.0,3.2155e-05,-1.3444,0.84898,118.73,26.772,46.785,829.13,-0.032993,105.77,0.12278,supercritical,O2,C7782447,oxygen,154.58,50.43,13.6,0.07352941176470588,1.1,13.526274043228238,0.00043730799999999997
170.04,683.5,31110.0,3.2144e-05,-1.3459,0.85109,118.72,26.776,46.774,829.75,-0.033036,105.89,0.12288,supercritical,O2,C7782447,oxygen,154.58,50.43,13.6,0.07352941176470588,1.1,13.553440412452906,0.0004371584
170.04,684.87,31121.0,3.2132e-05,-1.3474,0.8532,118.71,26.779,46.764,830.38,-0.033079,106.01,0.12299,supercritical,O2,C7782447,oxygen,154.58,50.43,13.6,0.07352941176470588,1.1,13.580606781677574,0.00043699520000000004
170.04,686.23,31132.0,3.2121e-05,-1.3489,0.85531,118.69,26.783,46.753,831.0,-0.033121,106.12,0.12309,supercritical,O2,C7782447,oxygen,154.58,50.43,13.6,0.07352941176470588,1.1,13.607574856236369,0.0004368456
170.04,687.6,31143.0,3.211e-05,-1.3505,0.85743,118.68,26.787,46.742,831.63,-0.033163,106.24,0.12319,supercritical,O2,C7782447,oxygen,154.58,50.43,13.6,0.07352941176470588,1.1,13.634741225461037,0.00043669600000000004
170.04,688.96,31154.0,3.2099e-05,-1.352,0.85955,118.67,26.791,46.732,832.25,-0.033205,106.36,0.12329,supercritical,O2,C7782447,oxygen,154.58,50.43,13.6,0.07352941176470588,1.1,13.66170930001983,0.0004365464
170.04,690.33,31164.0,3.2088e-05,-1.3535,0.86167,118.65,26.794,46.721,832.87,-0.033246,106.48,0.1234,supercritical,O2,C7782447,oxygen,154.58,50.43,13.6,0.07352941176470588,1.1,13.688875669244498,0.00043639680000000003
170.04,691.69,31175.0,3.2077e-05,-1.3549,0.86379,118.64,26.798,46.711,833.49,-0.033288,106.59,0.1235,supercritical,O2,C7782447,oxygen,154.58,50.43,13.6,0.07352941176470588,1.1,13.715843743803292,0.00043624719999999997
170.04,693.05,31186.0,3.2066e-05,-1.3564,0.86591,118.63,26.802,46.7,834.11,-0.033329,106.71,0.1236,supercritical,O2,C7782447,oxygen,154.58,50.43,13.6,0.07352941176470588,1.1,13.742811818362085,0.0004360976
170.04,694.42,31196.0,3.2055e-05,-1.3579,0.86804,118.62,26.805,46.69,834.73,-0.03337,106.83,0.1237,supercritical,O2,C7782447,oxygen,154.58,50.43,13.6,0.07352941176470588,1.1,13.769978187586753,0.00043594799999999997
170.04,695.78,31207.0,3.2044e-05,-1.3594,0.87016,118.6,26.809,46.679,835.35,-0.033411,106.95,0.1238,supercritical,O2,C7782447,oxygen,154.58,50.43,13.6,0.07352941176470588,1.1,13.796946262145548,0.00043579839999999996
170.04,697.15,31218.0,3.2033e-05,-1.3609,0.87229,118.59,26.813,46.669,835.96,-0.033452,107.06,0.1239,supercritical,O2,C7782447,oxygen,154.58,50.43,13.6,0.07352941176470588,1.1,13.824112631370216,0.0004356488
170.04,698.51,31228.0,3.2022e-05,-1.3624,0.87443,118.58,26.816,46.659,836.58,-0.033493,107.18,0.12401,supercritical,O2,C7782447,oxygen,154.58,50.43,13.6,0.07352941176470588,1.1,13.85108070592901,0.00043549919999999996
170.04,699.88,31239.0,3.2011e-05,-1.3639,0.87656,118.56,26.82,46.648,837.2,-0.033533,107.3,0.12411,supercritical,O2,C7782447,oxygen,154.58,50.43,13.6,0.07352941176470588,1.1,13.878247075153679,0.0004353496
170.04,701.25,31249.0,3.2001e-05,-1.3653,0.8787,118.55,26.824,46.638,837.81,-0.033574,107.42,0.12421,supercritical,O2,C7782447,oxygen,154.58,50.43,13.6,0.07352941176470588,1.1,13.905413444378347,0.0004352136
170.04,702.61,31260.0,3.199e-05,-1.3668,0.88083,118.54,26.827,46.628,838.43,-0.033614,107.53,0.12431,supercritical,O2,C7782447,oxygen,154.58,50.43,13.6,0.07352941176470588,1.1,13.932381518937142,0.0004350639999999999
170.04,703.98,31271.0,3.1979e-05,-1.3683,0.88297,118.52,26.831,46.618,839.04,-0.033654,107.65,0.12441,supercritical,O2,C7782447,oxygen,154.58,50.43,13.6,0.07352941176470588,1.1,13.95954788816181,0.0004349144
170.04,705.34,31281.0,3.1968e-05,-1.3697,0.88512,118.51,26.835,46.608,839.65,-0.033693,107.77,0.12451,supercritical,O2,C7782447,oxygen,154.58,50.43,13.6,0.07352941176470588,1.1,13.986515962720604,0.00043476480000000003
170.04,706.71,31292.0,3.1958e-05,-1.3712,0.88726,118.5,26.838,46.598,840.27,-0.033733,107.88,0.12461,supercritical,O2,C7782447,oxygen,154.58,50.43,13.6,0.07352941176470588,1.1,14.013682331945272,0.0004346288
170.04,708.07,31302.0,3.1947e-05,-1.3727,0.88941,118.48,26.842,46.588,840.88,-0.033772,108.0,0.12471,supercritical,O2,C7782447,oxygen,154.58,50.43,13.6,0.07352941176470588,1.1,14.040650406504065,0.00043447919999999994
170.04,709.43,31312.0,3.1936e-05,-1.3741,0.89156,118.47,26.845,46.578,841.49,-0.033812,108.12,0.12481,supercritical,O2,C7782447,oxygen,154.58,50.43,13.6,0.07352941176470588,1.1,14.067618481062858,0.0004343296
170.04,710.8,31323.0,3.1926e-05,-1.3756,0.89371,118.46,26.849,46.568,842.1,-0.033851,108.24,0.12491,supercritical,O2,C7782447,oxygen,154.58,50.43,13.6,0.07352941176470588,1.1,14.094784850287526,0.00043419359999999997
170.04,712.16,31333.0,3.1915e-05,-1.377,0.89586,118.44,26.853,46.558,842.71,-0.03389,108.35,0.12501,supercritical,O2,C7782447,oxygen,154.58,50.43,13.6,0.07352941176470588,1.1,14.121752924846321,0.000434044
170.04,713.53,31344.0,3.1904e-05,-1.3785,0.89802,118.43,26.856,46.548,843.31,-0.033928,108.47,0.12511,supercritical,O2,C7782447,oxygen,154.58,50.43,13.6,0.07352941176470588,1.1,14.14891929407099,0.00043389439999999996
170.04,714.89,31354.0,3.1894e-05,-1.3799,0.90017,118.42,26.86,46.538,843.92,-0.033967,108.59,0.12521,supercritical,O2,C7782447,oxygen,154.58,50.43,13.6,0.07352941176470588,1.1,14.175887368629784,0.00043375840000000004
170.04,716.26,31364.0,3.1883e-05,-1.3813,0.90233,118.41,26.863,46.528,844.53,-0.034005,108.7,0.12531,supercritical,O2,C7782447,oxygen,154.58,50.43,13.6,0.07352941176470588,1.1,14.203053737854452,0.0004336088
170.04,717.62,31375.0,3.1873e-05,-1.3828,0.90449,118.39,26.867,46.518,845.13,-0.034044,108.82,0.12541,supercritical,O2,C7782447,oxygen,154.58,50.43,13.6,0.07352941176470588,1.1,14.230021812413247,0.00043347279999999996
170.04,718.99,31385.0,3.1862e-05,-1.3842,0.90665,118.38,26.871,46.509,845.74,-0.034082,108.94,0.12551,supercritical,O2,C7782447,oxygen,154.58,50.43,13.6,0.07352941176470588,1.1,14.257188181637915,0.0004333232
170.04,720.36,31395.0,3.1852e-05,-1.3856,0.90882,118.37,26.874,46.499,846.34,-0.03412,109.05,0.12561,supercritical,O2,C7782447,oxygen,154.58,50.43,13.6,0.07352941176470588,1.1,14.284354550862583,0.0004331872
170.04,721.72,31406.0,3.1841e-05,-1.3871,0.91099,118.35,26.878,46.489,846.95,-0.034158,109.17,0.12571,supercritical,O2,C7782447,oxygen,154.58,50.43,13.6,0.07352941176470588,1.1,14.311322625421377,0.00043303760000000004
170.04,723.09,31416.0,3.1831e-05,-1.3885,0.91315,118.34,26.881,46.48,847.55,-0.034195,109.29,0.12581,supercritical,O2,C7782447,oxygen,154.58,50.43,13.6,0.07352941176470588,1.1,14.338488994646045,0.0004329016
170.04,724.45,31426.0,3.182e-05,-1.3899,0.91532,118.33,26.885,46.47,848.15,-0.034233,109.4,0.12591,supercritical,O2,C7782447,oxygen,154.58,50.43,13.6,0.07352941176470588,1.1,14.36545706920484,0.00043275199999999995
170.04,725.82,31437.0,3.181e-05,-1.3913,0.9175,118.32,26.888,46.461,848.75,-0.03427,109.52,0.12601,supercritical,O2,C7782447,oxygen,154.58,50.43,13.6,0.07352941176470588,1.1,14.392623438429508,0.00043261600000000003
170.04,727.18,31447.0,3.18e-05,-1.3927,0.91967,118.3,26.892,46.451,849.35,-0.034307,109.63,0.12611,supercritical,O2,C7782447,oxygen,154.58,50.43,13.6,0.07352941176470588,1.1,14.4195915129883,0.00043248
170.04,728.54,31457.0,3.1789e-05,-1.3942,0.92185,118.29,26.896,46.442,849.95,-0.034344,109.75,0.12621,supercritical,O2,C7782447,oxygen,154.58,50.43,13.6,0.07352941176470588,1.1,14.446559587547094,0.00043233039999999995
170.04,729.91,31467.0,3.1779e-05,-1.3956,0.92403,118.28,26.899,46.432,850.55,-0.034381,109.87,0.12631,supercritical,O2,C7782447,oxygen,154.58,50.43,13.6,0.07352941176470588,1.1,14.473725956771762,0.00043219440000000003
170.04,731.27,31477.0,3.1769e-05,-1.397,0.92621,118.27,26.903,46.423,851.15,-0.034418,109.98,0.12641,supercritical,O2,C7782447,oxygen,154.58,50.43,13.6,0.07352941176470588,1.1,14.500694031330557,0.0004320584
170.04,732.64,31487.0,3.1759e-05,-1.3984,0.92839,118.25,26.906,46.414,851.75,-0.034454,110.1,0.12651,supercritical,O2,C7782447,oxygen,154.58,50.43,13.6,0.07352941176470588,1.1,14.527860400555225,0.0004319224
170.04,734.0,31498.0,3.1748e-05,-1.3998,0.93057,118.24,26.91,46.404,852.35,-0.034491,110.21,0.1266,supercritical,O2,C7782447,oxygen,154.58,50.43,13.6,0.07352941176470588,1.1,14.55482847511402,0.00043177280000000003
170.04,735.37,31508.0,3.1738e-05,-1.4012,0.93276,118.23,26.913,46.395,852.94,-0.034527,110.33,0.1267,supercritical,O2,C7782447,oxygen,154.58,50.43,13.6,0.07352941176470588,1.1,14.581994844338688,0.0004316368
170.04,736.74,31518.0,3.1728e-05,-1.4026,0.93494,118.21,26.917,46.386,853.54,-0.034563,110.45,0.1268,supercritical,O2,C7782447,oxygen,154.58,50.43,13.6,0.07352941176470588,1.1,14.609161213563356,0.0004315008
170.04,738.1,31528.0,3.1718e-05,-1.404,0.93713,118.2,26.92,46.377,854.13,-0.034599,110.56,0.1269,supercritical,O2,C7782447,oxygen,154.58,50.43,13.6,0.07352941176470588,1.1,14.63612928812215,0.00043136479999999995
170.04,739.47,31538.0,3.1708e-05,-1.4054,0.93932,118.19,26.924,46.368,854.73,-0.034635,110.68,0.127,supercritical,O2,C7782447,oxygen,154.58,50.43,13.6,0.07352941176470588,1.1,14.663295657346819,0.00043122880000000003
170.04,740.83,31548.0,3.1698e-05,-1.4067,0.94152,118.18,26.927,46.358,855.32,-0.03467,110.79,0.1271,supercritical,O2,C7782447,oxygen,154.58,50.43,13.6,0.07352941176470588,1.1,14.690263731905613,0.0004310928
170.04,742.2,31558.0,3.1688e-05,-1.4081,0.94371,118.16,26.931,46.349,855.91,-0.034706,110.91,0.12719,supercritical,O2,C7782447,oxygen,154.58,50.43,13.6,0.07352941176470588,1.1,14.717430101130281,0.0004309568
170.04,743.56,31568.0,3.1678e-05,-1.4095,0.94591,118.15,26.934,46.34,856.51,-0.034741,111.03,0.12729,supercritical,O2,C7782447,oxygen,154.58,50.43,13.6,0.07352941176470588,1.1,14.744398175689073,0.00043082079999999995
170.04,744.92,31578.0,3.1668e-05,-1.4109,0.94811,118.14,26.938,46.331,857.1,-0.034776,111.14,0.12739,supercritical,O2,C7782447,oxygen,154.58,50.43,13.6,0.07352941176470588,1.1,14.771366250247867,0.00043068480000000003
170.04,746.29,31588.0,3.1658e-05,-1.4123,0.95031,118.13,26.941,46.322,857.69,-0.034811,111.26,0.12749,supercritical,O2,C7782447,oxygen,154.58,50.43,13.6,0.07352941176470588,1.1,14.798532619472535,0.0004305488
170.04,747.65,31598.0,3.1648e-05,-1.4136,0.95251,118.11,26.945,46.313,858.28,-0.034846,111.37,0.12758,supercritical,O2,C7782447,oxygen,154.58,50.43,13.6,0.07352941176470588,1.1,14.82550069403133,0.0004304128
170.04,749.02,31608.0,3.1638e-05,-1.415,0.95471,118.1,26.948,46.304,858.87,-0.034881,111.49,0.12768,supercritical,O2,C7782447,oxygen,154.58,50.43,13.6,0.07352941176470588,1.1,14.852667063255998,0.00043027679999999995
170.04,750.38,31618.0,3.1628e-05,-1.4164,0.95692,118.09,26.952,46.295,859.45,-0.034916,111.6,0.12778,supercritical,O2,C7782447,oxygen,154.58,50.43,13.6,0.07352941176470588,1.1,14.879635137814793,0.00043014080000000003
170.04,751.75,31628.0,3.1618e-05,-1.4177,0.95913,118.08,26.955,46.287,860.04,-0.03495,111.72,0.12788,supercritical,O2,C7782447,oxygen,154.58,50.43,13.6,0.07352941176470588,1.1,14.90680150703946,0.0004300048
170.04,753.12,31638.0,3.1608e-05,-1.4191,0.96134,118.07,26.958,46.278,860.63,-0.034985,111.83,0.12797,supercritical,O2,C7782447,oxygen,154.58,50.43,13.6,0.07352941176470588,1.1,14.933967876264129,0.00042986879999999997
170.04,754.48,31648.0,3.1598e-05,-1.4205,0.96355,118.05,26.962,46.269,861.22,-0.035019,111.95,0.12807,supercritical,O2,C7782447,oxygen,154.58,50.43,13.6,0.07352941176470588,1.1,14.960935950822924,0.00042973279999999995
170.04,755.85,31657.0,3.1588e-05,-1.4218,0.96576,118.04,26.965,46.26,861.8,-0.035053,112.06,0.12817,supercritical,O2,C7782447,oxygen,154.58,50.43,13.6,0.07352941176470588,1.1,14.988102320047592,0.0004295968
170.04,757.21,31667.0,3.1578e-05,-1.4232,0.96797,118.03,26.969,46.252,862.39,-0.035087,112.18,0.12826,supercritical,O2,C7782447,oxygen,154.58,50.43,13.6,0.07352941176470588,1.1,15.015070394606386,0.0004294608
170.04,758.58,31677.0,3.1569e-05,-1.4245,0.97019,118.02,26.972,46.243,862.97,-0.035121,112.29,0.12836,supercritical,O2,C7782447,oxygen,154.58,50.43,13.6,0.07352941176470588,1.1,15.042236763831054,0.0004293384
170.04,759.94,31687.0,3.1559e-05,-1.4259,0.97241,118.0,26.976,46.234,863.56,-0.035154,112.41,0.12846,supercritical,O2,C7782447,oxygen,154.58,50.43,13.6,0.07352941176470588,1.1,15.06920483838985,0.0004292024
170.04,761.3,31697.0,3.1549e-05,-1.4272,0.97463,117.99,26.979,46.226,864.14,-0.035188,112.53,0.12855,supercritical,O2,C7782447,oxygen,154.58,50.43,13.6,0.07352941176470588,1.1,15.09617291294864,0.00042906639999999995