Temperature (K),Pressure (bar),Density (mol/m3),Volume (m3/mol),Internal Energy (kJ/mol),Enthalpy (kJ/mol),Entropy (J/mol*K),Cv (J/mol*K),Cp (J/mol*K),Sound Spd. (m/s),Joule-Thomson (K/bar),Viscosity (uPa*s),Therm. Cond. (W/m*K),Phase,substance,substance_id,substance_name,Tc,Pc,rhoc,Vmc,Tr,Pr,Vmr
278.24,391.39,16395.0,6.0995e-05,3.3908,5.7781,146.56,23.132,44.491,468.47,0.037813,38.646,0.055085,supercritical,O2,C7782447,oxygen,154.58,50.43,13.6,0.07352941176470588,1.8,7.761054927622447,0.000829532
278.24,392.75,16432.0,6.0857e-05,3.3856,5.7758,146.53,23.135,44.485,469.3,0.037361,38.724,0.055191,supercritical,O2,C7782447,oxygen,154.58,50.43,13.6,0.07352941176470588,1.8,7.788023002181242,0.0008276551999999999
278.24,394.12,16469.0,6.0719e-05,3.3804,5.7735,146.49,23.139,44.479,470.13,0.036911,38.802,0.055298,supercritical,O2,C7782447,oxygen,154.58,50.43,13.6,0.07352941176470588,1.8,7.81518937140591,0.0008257783999999999
278.24,395.49,16506.0,6.0583e-05,3.3753,5.7713,146.45,23.142,44.473,470.96,0.036464,38.881,0.055405,supercritical,O2,C7782447,oxygen,154.58,50.43,13.6,0.07352941176470588,1.8,7.842355740630577,0.0008239288
278.24,396.85,16543.0,6.0448e-05,3.3702,5.7691,146.41,23.146,44.466,471.79,0.036021,38.958,0.055511,supercritical,O2,C7782447,oxygen,154.58,50.43,13.6,0.07352941176470588,1.8,7.869323815189372,0.0008220928
278.24,398.21,16580.0,6.0314e-05,3.3651,5.7669,146.38,23.149,44.46,472.62,0.035581,39.036,0.055617,supercritical,O2,C7782447,oxygen,154.58,50.43,13.6,0.07352941176470588,1.8,7.8962918897481655,0.0008202703999999999
278.24,399.58,16616.0,6.0181e-05,3.36,5.7648,146.34,23.152,44.453,473.45,0.035143,39.114,0.055723,supercritical,O2,C7782447,oxygen,154.58,50.43,13.6,0.07352941176470588,1.8,7.9234582589728335,0.0008184615999999999
278.24,400.94,16653.0,6.0049e-05,3.355,5.7626,146.3,23.156,44.447,474.28,0.034709,39.192,0.055829,supercritical,O2,C7782447,oxygen,154.58,50.43,13.6,0.07352941176470588,1.8,7.950426333531628,0.0008166664
278.24,402.31,16689.0,5.9919e-05,3.35,5.7606,146.26,23.159,44.44,475.1,0.034278,39.269,0.055934,supercritical,O2,C7782447,oxygen,154.58,50.43,13.6,0.07352941176470588,1.8,7.977592702756296,0.0008148984
278.24,403.68,16725.0,5.9789e-05,3.345,5.7585,146.23,23.162,44.433,475.93,0.03385,39.347,0.05604,supercritical,O2,C7782447,oxygen,154.58,50.43,13.6,0.07352941176470588,1.8,8.004759071980963,0.0008131303999999999
278.24,405.04,16762.0,5.966e-05,3.34,5.7564,146.19,23.166,44.426,476.76,0.033424,39.424,0.056145,supercritical,O2,C7782447,oxygen,154.58,50.43,13.6,0.07352941176470588,1.8,8.031727146539758,0.000811376
278.24,406.4,16797.0,5.9533e-05,3.335,5.7544,146.15,23.169,44.419,477.59,0.033002,39.501,0.05625,supercritical,O2,C7782447,oxygen,154.58,50.43,13.6,0.07352941176470588,1.8,8.058695221098551,0.0008096488
278.24,407.77,16833.0,5.9406e-05,3.33,5.7524,146.12,23.173,44.412,478.41,0.032583,39.579,0.056355,supercritical,O2,C7782447,oxygen,154.58,50.43,13.6,0.07352941176470588,1.8,8.08586159032322,0.0008079216
278.24,409.13,16869.0,5.9281e-05,3.3251,5.7505,146.08,23.176,44.404,479.24,0.032166,39.656,0.05646,supercritical,O2,C7782447,oxygen,154.58,50.43,13.6,0.07352941176470588,1.8,8.112829664882014,0.0008062216
278.24,410.5,16904.0,5.9156e-05,3.3202,5.7485,146.05,23.179,44.397,480.06,0.031752,39.733,0.056565,supercritical,O2,C7782447,oxygen,154.58,50.43,13.6,0.07352941176470588,1.8,8.139996034106682,0.0008045216
278.24,411.87,16940.0,5.9033e-05,3.3153,5.7466,146.01,23.182,44.39,480.89,0.031342,39.81,0.05667,supercritical,O2,C7782447,oxygen,154.58,50.43,13.6,0.07352941176470588,1.8,8.16716240333135,0.0008028488
278.24,413.23,16975.0,5.891e-05,3.3104,5.7447,145.97,23.186,44.382,481.71,0.030934,39.886,0.056774,supercritical,O2,C7782447,oxygen,154.58,50.43,13.6,0.07352941176470588,1.8,8.194130477890145,0.0008011759999999999
278.24,414.6,17010.0,5.8788e-05,3.3056,5.7429,145.94,23.189,44.374,482.54,0.030528,39.963,0.056878,supercritical,O2,C7782447,oxygen,154.58,50.43,13.6,0.07352941176470588,1.8,8.221296847114813,0.0007995168
278.24,415.96,17045.0,5.8668e-05,3.3007,5.7411,145.9,23.192,44.367,483.36,0.030126,40.04,0.056982,supercritical,O2,C7782447,oxygen,154.58,50.43,13.6,0.07352941176470588,1.8,8.248264921673607,0.0007978848
278.24,417.32,17080.0,5.8548e-05,3.2959,5.7392,145.87,23.196,44.359,484.18,0.029726,40.116,0.057086,supercritical,O2,C7782447,oxygen,154.58,50.43,13.6,0.07352941176470588,1.8,8.2752329962324,0.0007962528000000001
278.24,418.69,17115.0,5.8429e-05,3.2911,5.7375,145.83,23.199,44.351,485.01,0.029329,40.193,0.05719,supercritical,O2,C7782447,oxygen,154.58,50.43,13.6,0.07352941176470588,1.8,8.302399365457068,0.0007946343999999999
278.24,420.06,17149.0,5.8311e-05,3.2863,5.7357,145.8,23.202,44.343,485.83,0.028935,40.269,0.057294,supercritical,O2,C7782447,oxygen,154.58,50.43,13.6,0.07352941176470588,1.8,8.329565734681736,0.0007930296
278.24,421.42,17184.0,5.8194e-05,3.2815,5.7339,145.76,23.206,44.335,486.65,0.028543,40.345,0.057397,supercritical,O2,C7782447,oxygen,154.58,50.43,13.6,0.07352941176470588,1.8,8.356533809240531,0.0007914383999999999
278.24,422.79,17218.0,5.8078e-05,3.2768,5.7322,145.73,23.209,44.327,487.47,0.028154,40.422,0.0575,supercritical,O2,C7782447,oxygen,154.58,50.43,13.6,0.07352941176470588,1.8,8.3837001784652,0.0007898608
278.24,424.15,17252.0,5.7963e-05,3.272,5.7305,145.69,23.212,44.319,488.29,0.027768,40.498,0.057604,supercritical,O2,C7782447,oxygen,154.58,50.43,13.6,0.07352941176470588,1.8,8.410668253023994,0.0007882968
278.24,425.51,17287.0,5.7849e-05,3.2673,5.7289,145.66,23.215,44.311,489.11,0.027384,40.574,0.057707,supercritical,O2,C7782447,oxygen,154.58,50.43,13.6,0.07352941176470588,1.8,8.437636327582787,0.0007867464
278.24,426.88,17320.0,5.7735e-05,3.2626,5.7272,145.62,23.219,44.302,489.93,0.027003,40.65,0.05781,supercritical,O2,C7782447,oxygen,154.58,50.43,13.6,0.07352941176470588,1.8,8.464802696807455,0.000785196
278.24,428.25,17354.0,5.7622e-05,3.258,5.7256,145.59,23.222,44.294,490.75,0.026625,40.726,0.057912,supercritical,O2,C7782447,oxygen,154.58,50.43,13.6,0.07352941176470588,1.8,8.491969066032123,0.0007836592
278.24,429.61,17388.0,5.7511e-05,3.2533,5.724,145.56,23.225,44.285,491.56,0.026249,40.801,0.058015,supercritical,O2,C7782447,oxygen,154.58,50.43,13.6,0.07352941176470588,1.8,8.518937140590918,0.0007821496
278.24,430.98,17422.0,5.74e-05,3.2486,5.7224,145.52,23.228,44.277,492.38,0.025875,40.877,0.058117,supercritical,O2,C7782447,oxygen,154.58,50.43,13.6,0.07352941176470588,1.8,8.546103509815586,0.00078064
278.24,432.34,17455.0,5.729e-05,3.244,5.7209,145.49,23.232,44.268,493.2,0.025505,40.953,0.05822,supercritical,O2,C7782447,oxygen,154.58,50.43,13.6,0.07352941176470588,1.8,8.57307158437438,0.000779144
278.24,433.7,17488.0,5.718e-05,3.2394,5.7194,145.46,23.235,44.26,494.01,0.025136,41.028,0.058322,supercritical,O2,C7782447,oxygen,154.58,50.43,13.6,0.07352941176470588,1.8,8.600039658933175,0.0007776479999999999
278.24,435.07,17522.0,5.7072e-05,3.2348,5.7178,145.42,23.238,44.251,494.83,0.02477,41.103,0.058424,supercritical,O2,C7782447,oxygen,154.58,50.43,13.6,0.07352941176470588,1.8,8.627206028157843,0.0007761792
278.24,436.44,17555.0,5.6964e-05,3.2302,5.7164,145.39,23.241,44.242,495.64,0.024407,41.179,0.058526,supercritical,O2,C7782447,oxygen,154.58,50.43,13.6,0.07352941176470588,1.8,8.654372397382511,0.0007747104
278.24,437.8,17588.0,5.6857e-05,3.2257,5.7149,145.36,23.244,44.233,496.46,0.024046,41.254,0.058628,supercritical,O2,C7782447,oxygen,154.58,50.43,13.6,0.07352941176470588,1.8,8.681340471941304,0.0007732552
278.24,439.17,17621.0,5.6751e-05,3.2211,5.7135,145.32,23.248,44.225,497.27,0.023687,41.329,0.058729,supercritical,O2,C7782447,oxygen,154.58,50.43,13.6,0.07352941176470588,1.8,8.708506841165972,0.0007718136
278.24,440.53,17653.0,5.6646e-05,3.2166,5.712,145.29,23.251,44.216,498.08,0.023331,41.404,0.058831,supercritical,O2,C7782447,oxygen,154.58,50.43,13.6,0.07352941176470588,1.8,8.735474915724767,0.0007703855999999999
278.24,441.89,17686.0,5.6542e-05,3.2121,5.7106,145.26,23.254,44.207,498.9,0.022977,41.479,0.058932,supercritical,O2,C7782447,oxygen,154.58,50.43,13.6,0.07352941176470588,1.8,8.762442990283562,0.0007689712
278.24,443.26,17719.0,5.6438e-05,3.2076,5.7093,145.22,23.257,44.198,499.71,0.022626,41.554,0.059033,supercritical,O2,C7782447,oxygen,154.58,50.43,13.6,0.07352941176470588,1.8,8.78960935950823,0.0007675567999999999
278.24,444.62,17751.0,5.6335e-05,3.2031,5.7079,145.19,23.26,44.189,500.52,0.022276,41.629,0.059135,supercritical,O2,C7782447,oxygen,154.58,50.43,13.6,0.07352941176470588,1.8,8.816577434067023,0.000766156
278.24,445.99,17783.0,5.6232e-05,3.1987,5.7066,145.16,23.264,44.18,501.33,0.02193,41.704,0.059236,supercritical,O2,C7782447,oxygen,154.58,50.43,13.6,0.07352941176470588,1.8,8.84374380329169,0.0007647552
278.24,447.36,17816.0,5.6131e-05,3.1942,5.7053,145.13,23.267,44.17,502.14,0.021585,41.778,0.059336,supercritical,O2,C7782447,oxygen,154.58,50.43,13.6,0.07352941176470588,1.8,8.870910172516359,0.0007633816
278.24,448.72,17848.0,5.603e-05,3.1898,5.704,145.09,23.27,44.161,502.95,0.021243,41.853,0.059437,supercritical,O2,C7782447,oxygen,154.58,50.43,13.6,0.07352941176470588,1.8,8.897878247075154,0.0007620079999999999
278.24,450.08,17880.0,5.593e-05,3.1854,5.7027,145.06,23.273,44.152,503.75,0.020903,41.927,0.059538,supercritical,O2,C7782447,oxygen,154.58,50.43,13.6,0.07352941176470588,1.8,8.924846321633948,0.0007606479999999999
278.24,451.45,17911.0,5.5831e-05,3.181,5.7015,145.03,23.276,44.143,504.56,0.020565,42.002,0.059638,supercritical,O2,C7782447,oxygen,154.58,50.43,13.6,0.07352941176470588,1.8,8.952012690858616,0.0007593016
278.24,452.81,17943.0,5.5732e-05,3.1766,5.7002,145.0,23.279,44.133,505.37,0.02023,42.076,0.059739,supercritical,O2,C7782447,oxygen,154.58,50.43,13.6,0.07352941176470588,1.8,8.978980765417411,0.0007579552
278.24,454.18,17975.0,5.5634e-05,3.1722,5.699,144.97,23.283,44.124,506.17,0.019896,42.15,0.059839,supercritical,O2,C7782447,oxygen,154.58,50.43,13.6,0.07352941176470588,1.8,9.00614713464208,0.0007566224
278.24,455.55,18006.0,5.5536e-05,3.1679,5.6978,144.94,23.286,44.115,506.98,0.019565,42.225,0.059939,supercritical,O2,C7782447,oxygen,154.58,50.43,13.6,0.07352941176470588,1.8,9.033313503866747,0.0007552895999999999
278.24,456.91,18038.0,5.544e-05,3.1636,5.6967,144.9,23.289,44.105,507.78,0.019236,42.299,0.060039,supercritical,O2,C7782447,oxygen,154.58,50.43,13.6,0.07352941176470588,1.8,9.06028157842554,0.000753984
278.24,458.27,18069.0,5.5344e-05,3.1592,5.6955,144.87,23.292,44.096,508.59,0.01891,42.373,0.060139,supercritical,O2,C7782447,oxygen,154.58,50.43,13.6,0.07352941176470588,1.8,9.087249652984335,0.0007526783999999999
278.24,459.64,18100.0,5.5249e-05,3.1549,5.6944,144.84,23.295,44.086,509.39,0.018585,42.447,0.060239,supercritical,O2,C7782447,oxygen,154.58,50.43,13.6,0.07352941176470588,1.8,9.114416022209003,0.0007513864
278.24,461.0,18131.0,5.5154e-05,3.1507,5.6933,144.81,23.298,44.077,510.19,0.018262,42.521,0.060338,supercritical,O2,C7782447,oxygen,154.58,50.43,13.6,0.07352941176470588,1.8,9.141384096767798,0.0007500944
278.24,462.37,18162.0,5.506e-05,3.1464,5.6922,144.78,23.301,44.067,510.99,0.017942,42.595,0.060438,supercritical,O2,C7782447,oxygen,154.58,50.43,13.6,0.07352941176470588,1.8,9.168550465992466,0.0007488159999999999
278.24,463.74,18193.0,5.4967e-05,3.1421,5.6911,144.75,23.304,44.058,511.8,0.017624,42.668,0.060537,supercritical,O2,C7782447,oxygen,154.58,50.43,13.6,0.07352941176470588,1.8,9.195716835217134,0.0007475511999999999
278.24,465.1,18224.0,5.4874e-05,3.1379,5.6901,144.72,23.308,44.048,512.6,0.017307,42.742,0.060636,supercritical,O2,C7782447,oxygen,154.58,50.43,13.6,0.07352941176470588,1.8,9.222684909775927,0.0007462863999999999
278.24,466.46,18254.0,5.4782e-05,3.1337,5.689,144.69,23.311,44.038,513.4,0.016993,42.816,0.060736,supercritical,O2,C7782447,oxygen,154.58,50.43,13.6,0.07352941176470588,1.8,9.249652984334721,0.0007450352
278.24,467.83,18285.0,5.469e-05,3.1294,5.688,144.66,23.314,44.029,514.19,0.016681,42.889,0.060835,supercritical,O2,C7782447,oxygen,154.58,50.43,13.6,0.07352941176470588,1.8,9.27681935355939,0.0007437839999999999
278.24,469.19,18315.0,5.46e-05,3.1252,5.687,144.63,23.317,44.019,514.99,0.016371,42.962,0.060934,supercritical,O2,C7782447,oxygen,154.58,50.43,13.6,0.07352941176470588,1.8,9.303787428118184,0.00074256
278.24,470.56,18345.0,5.4509e-05,3.1211,5.6861,144.6,23.32,44.009,515.79,0.016063,43.036,0.061033,supercritical,O2,C7782447,oxygen,154.58,50.43,13.6,0.07352941176470588,1.8,9.330953797342852,0.0007413224
278.24,471.93,18376.0,5.442e-05,3.1169,5.6851,144.57,23.323,44.0,516.59,0.015757,43.109,0.061131,supercritical,O2,C7782447,oxygen,154.58,50.43,13.6,0.07352941176470588,1.8,9.35812016656752,0.0007401119999999999
278.24,473.29,18406.0,5.4331e-05,3.1127,5.6842,144.54,23.326,43.99,517.38,0.015452,43.182,0.06123,supercritical,O2,C7782447,oxygen,154.58,50.43,13.6,0.07352941176470588,1.8,9.385088241126315,0.0007389015999999999
278.24,474.65,18436.0,5.4242e-05,3.1086,5.6832,144.51,23.329,43.98,518.18,0.01515,43.256,0.061328,supercritical,O2,C7782447,oxygen,154.58,50.43,13.6,0.07352941176470588,1.8,9.412056315685108,0.0007376912
278.24,476.02,18466.0,5.4154e-05,3.1045,5.6823,144.48,23.332,43.97,518.97,0.01485,43.329,0.061427,supercritical,O2,C7782447,oxygen,154.58,50.43,13.6,0.07352941176470588,1.8,9.439222684909776,0.0007364943999999999
278.24,477.38,18495.0,5.4067e-05,3.1004,5.6815,144.45,23.335,43.96,519.76,0.014552,43.402,0.061525,supercritical,O2,C7782447,oxygen,154.58,50.43,13.6,0.07352941176470588,1.8,9.46619075946857,0.0007353112000000001
278.24,478.75,18525.0,5.3981e-05,3.0963,5.6806,144.42,23.338,43.951,520.56,0.014255,43.475,0.061623,supercritical,O2,C7782447,oxygen,154.58,50.43,13.6,0.07352941176470588,1.8,9.493357128693239,0.0007341415999999999
278.24,480.12,18555.0,5.3894e-05,3.0922,5.6798,144.39,23.341,43.941,521.35,0.01396,43.547,0.061721,supercritical,O2,C7782447,oxygen,154.58,50.43,13.6,0.07352941176470588,1.8,9.520523497917907,0.0007329584
278.24,481.48,18584.0,5.3809e-05,3.0881,5.6789,144.36,23.344,43.931,522.14,0.013668,43.62,0.061819,supercritical,O2,C7782447,oxygen,154.58,50.43,13.6,0.07352941176470588,1.8,9.547491572476702,0.0007318024
278.24,482.85,18614.0,5.3724e-05,3.0841,5.6781,144.33,23.347,43.921,522.93,0.013377,43.693,0.061917,supercritical,O2,C7782447,oxygen,154.58,50.43,13.6,0.07352941176470588,1.8,9.57465794170137,0.0007306464
278.24,484.21,18643.0,5.364e-05,3.08,5.6773,144.3,23.35,43.911,523.72,0.013088,43.766,0.062015,supercritical,O2,C7782447,oxygen,154.58,50.43,13.6,0.07352941176470588,1.8,9.601626016260163,0.000729504
278.24,485.57,18672.0,5.3556e-05,3.076,5.6765,144.27,23.354,43.901,524.51,0.012801,43.838,0.062113,supercritical,O2,C7782447,oxygen,154.58,50.43,13.6,0.07352941176470588,1.8,9.628594090818957,0.0007283616
278.24,486.94,18701.0,5.3472e-05,3.072,5.6758,144.24,23.357,43.891,525.3,0.012516,43.911,0.06221,supercritical,O2,C7782447,oxygen,154.58,50.43,13.6,0.07352941176470588,1.8,9.655760460043625,0.0007272191999999999
278.24,488.31,18730.0,5.339e-05,3.068,5.675,144.21,23.36,43.881,526.09,0.012232,43.983,0.062308,supercritical,O2,C7782447,oxygen,154.58,50.43,13.6,0.07352941176470588,1.8,9.682926829268293,0.000726104
278.24,489.67,18759.0,5.3307e-05,3.064,5.6743,144.18,23.363,43.871,526.87,0.01195,44.056,0.062405,supercritical,O2,C7782447,oxygen,154.58,50.43,13.6,0.07352941176470588,1.8,9.709894903827088,0.0007249752000000001
278.24,491.04,18788.0,5.3226e-05,3.0601,5.6736,144.16,23.366,43.861,527.66,0.01167,44.128,0.062502,supercritical,O2,C7782447,oxygen,154.58,50.43,13.6,0.07352941176470588,1.8,9.737061273051756,0.0007238736
278.24,492.4,18817.0,5.3144e-05,3.0561,5.6729,144.13,23.369,43.851,528.44,0.011392,44.2,0.0626,supercritical,O2,C7782447,oxygen,154.58,50.43,13.6,0.07352941176470588,1.8,9.764029347610549,0.0007227583999999999
278.24,493.76,18845.0,5.3064e-05,3.0522,5.6722,144.1,23.372,43.841,529.23,0.011116,44.273,0.062697,supercritical,O2,C7782447,oxygen,154.58,50.43,13.6,0.07352941176470588,1.8,9.790997422169344,0.0007216703999999999
278.24,495.13,18874.0,5.2983e-05,3.0482,5.6716,144.07,23.375,43.831,530.01,0.010841,44.345,0.062794,supercritical,O2,C7782447,oxygen,154.58,50.43,13.6,0.07352941176470588,1.8,9.818163791394012,0.0007205687999999999
278.24,496.5,18902.0,5.2904e-05,3.0443,5.671,144.04,23.378,43.821,530.79,0.010568,44.417,0.06289,supercritical,O2,C7782447,oxygen,154.58,50.43,13.6,0.07352941176470588,1.8,9.84533016061868,0.0007194944
278.24,497.86,18931.0,5.2825e-05,3.0404,5.6703,144.01,23.381,43.811,531.58,0.010297,44.489,0.062987,supercritical,O2,C7782447,oxygen,154.58,50.43,13.6,0.07352941176470588,1.8,9.872298235177475,0.00071842
278.24,499.23,18959.0,5.2746e-05,3.0365,5.6697,143.99,23.384,43.801,532.36,0.010027,44.561,0.063084,supercritical,O2,C7782447,oxygen,154.58,50.43,13.6,0.07352941176470588,1.8,9.899464604402143,0.0007173456
278.24,500.59,18987.0,5.2668e-05,3.0326,5.6691,143.96,23.387,43.791,533.14,0.0097591,44.633,0.063181,supercritical,O2,C7782447,oxygen,154.58,50.43,13.6,0.07352941176470588,1.8,9.926432678960936,0.0007162847999999999
278.24,501.95,19015.0,5.259e-05,3.0288,5.6686,143.93,23.39,43.781,533.92,0.0094929,44.705,0.063277,supercritical,O2,C7782447,oxygen,154.58,50.43,13.6,0.07352941176470588,1.8,9.95340075351973,0.000715224
278.24,503.32,19043.0,5.2513e-05,3.0249,5.668,143.9,23.393,43.771,534.7,0.0092283,44.776,0.063373,supercritical,O2,C7782447,oxygen,154.58,50.43,13.6,0.07352941176470588,1.8,9.980567122744398,0.0007141767999999999
278.24,504.69,19071.0,5.2436e-05,3.0211,5.6674,143.87,23.395,43.761,535.47,0.0089653,44.848,0.06347,supercritical,O2,C7782447,oxygen,154.58,50.43,13.6,0.07352941176470588,1.8,10.007733491969066,0.0007131295999999999
278.24,506.05,19099.0,5.236e-05,3.0173,5.6669,143.85,23.398,43.751,536.25,0.008704,44.92,0.063566,supercritical,O2,C7782447,oxygen,154.58,50.43,13.6,0.07352941176470588,1.8,10.034701566527861,0.000712096
278.24,507.42,19126.0,5.2284e-05,3.0134,5.6664,143.82,23.401,43.741,537.03,0.0084443,44.991,0.063662,supercritical,O2,C7782447,oxygen,154.58,50.43,13.6,0.07352941176470588,1.8,10.06186793575253,0.0007110624
278.24,508.78,19154.0,5.2209e-05,3.0096,5.6659,143.79,23.404,43.731,537.8,0.0081861,45.063,0.063758,supercritical,O2,C7782447,oxygen,154.58,50.43,13.6,0.07352941176470588,1.8,10.088836010311322,0.0007100424
278.24,510.14,19181.0,5.2134e-05,3.0059,5.6654,143.76,23.407,43.721,538.58,0.0079296,45.134,0.063854,supercritical,O2,C7782447,oxygen,154.58,50.43,13.6,0.07352941176470588,1.8,10.115804084870117,0.0007090223999999999
278.24,511.51,19209.0,5.2059e-05,3.0021,5.665,143.74,23.41,43.711,539.35,0.0076747,45.206,0.06395,supercritical,O2,C7782447,oxygen,154.58,50.43,13.6,0.07352941176470588,1.8,10.142970454094785,0.0007080023999999999
278.24,512.88,19236.0,5.1985e-05,2.9983,5.6645,143.71,23.413,43.701,540.13,0.0074213,45.277,0.064046,supercritical,O2,C7782447,oxygen,154.58,50.43,13.6,0.07352941176470588,1.8,10.170136823319453,0.000706996
278.24,514.24,19263.0,5.1912e-05,2.9946,5.6641,143.68,23.416,43.691,540.9,0.0071694,45.349,0.064142,supercritical,O2,C7782447,oxygen,154.58,50.43,13.6,0.07352941176470588,1.8,10.197104897878248,0.0007060031999999999
278.24,515.61,19291.0,5.1839e-05,2.9908,5.6637,143.66,23.419,43.681,541.67,0.0069191,45.42,0.064237,supercritical,O2,C7782447,oxygen,154.58,50.43,13.6,0.07352941176470588,1.8,10.224271267102916,0.0007050104
278.24,516.97,19318.0,5.1766e-05,2.9871,5.6633,143.63,23.422,43.671,542.44,0.0066703,45.491,0.064333,supercritical,O2,C7782447,oxygen,154.58,50.43,13.6,0.07352941176470588,1.8,10.25123934166171,0.0007040175999999999
278.24,518.34,19345.0,5.1694e-05,2.9834,5.6629,143.6,23.425,43.661,543.21,0.0064231,45.562,0.064428,supercritical,O2,C7782447,oxygen,154.58,50.43,13.6,0.07352941176470588,1.8,10.278405710886378,0.0007030383999999999