Temperature (K),Pressure (bar),Density (mol/m3),Volume (m3/mol),Internal Energy (kJ/mol),Enthalpy (kJ/mol),Entropy (J/mol*K),Cv (J/mol*K),Cp (J/mol*K),Sound Spd. (m/s),Joule-Thomson (K/bar),Viscosity (uPa*s),Therm. Cond. (W/m*K),Phase,substance,substance_id,substance_name,Tc,Pc,rhoc,Vmc,Tr,Pr,Vmr
456.27,674.58,16275.0,6.1443e-05,18.047,22.192,72.046,40.284,68.54,592.89,0.017099,64.96,0.083536,supercritical,CO2,C124389,carbon-dioxide,304.18,73.8,10.6,0.09433962264150944,1.5,9.140650406504067,0.0006512957999999999
456.27,677.04,16302.0,6.1341e-05,18.036,22.189,72.006,40.289,68.513,594.2,0.016757,65.124,0.083696,supercritical,CO2,C124389,carbon-dioxide,304.18,73.8,10.6,0.09433962264150944,1.5,9.173983739837398,0.0006502145999999999
456.27,679.5,16329.0,6.124e-05,18.025,22.186,71.967,40.293,68.486,595.51,0.016418,65.287,0.083856,supercritical,CO2,C124389,carbon-dioxide,304.18,73.8,10.6,0.09433962264150944,1.5,9.207317073170731,0.0006491439999999999
456.27,681.96,16356.0,6.114e-05,18.014,22.183,71.928,40.297,68.46,596.81,0.016083,65.451,0.084016,supercritical,CO2,C124389,carbon-dioxide,304.18,73.8,10.6,0.09433962264150944,1.5,9.240650406504066,0.0006480839999999999
456.27,684.42,16382.0,6.1041e-05,18.003,22.181,71.89,40.302,68.433,598.11,0.01575,65.613,0.084175,supercritical,CO2,C124389,carbon-dioxide,304.18,73.8,10.6,0.09433962264150944,1.5,9.273983739837398,0.0006470346
456.27,686.88,16409.0,6.0943e-05,17.992,22.178,71.851,40.306,68.407,599.41,0.015421,65.776,0.084334,supercritical,CO2,C124389,carbon-dioxide,304.18,73.8,10.6,0.09433962264150944,1.5,9.307317073170733,0.0006459958
456.27,689.33,16435.0,6.0845e-05,17.981,22.176,71.812,40.311,68.38,600.7,0.015094,65.938,0.084492,supercritical,CO2,C124389,carbon-dioxide,304.18,73.8,10.6,0.09433962264150944,1.5,9.340514905149053,0.0006449569999999999
456.27,691.79,16461.0,6.0748e-05,17.97,22.173,71.774,40.315,68.354,601.99,0.01477,66.1,0.08465,supercritical,CO2,C124389,carbon-dioxide,304.18,73.8,10.6,0.09433962264150944,1.5,9.373848238482385,0.0006439287999999999
456.27,694.25,16487.0,6.0652e-05,17.96,22.171,71.736,40.32,68.328,603.29,0.014449,66.262,0.084808,supercritical,CO2,C124389,carbon-dioxide,304.18,73.8,10.6,0.09433962264150944,1.5,9.407181571815718,0.0006429112
456.27,696.71,16513.0,6.0557e-05,17.949,22.168,71.698,40.324,68.302,604.57,0.014131,66.423,0.084965,supercritical,CO2,C124389,carbon-dioxide,304.18,73.8,10.6,0.09433962264150944,1.5,9.440514905149053,0.0006419042
456.27,699.17,16539.0,6.0462e-05,17.938,22.166,71.66,40.328,68.276,605.86,0.013816,66.584,0.085122,supercritical,CO2,C124389,carbon-dioxide,304.18,73.8,10.6,0.09433962264150944,1.5,9.473848238482384,0.0006408971999999999
456.27,701.63,16565.0,6.0368e-05,17.928,22.164,71.623,40.333,68.25,607.14,0.013504,66.745,0.085279,supercritical,CO2,C124389,carbon-dioxide,304.18,73.8,10.6,0.09433962264150944,1.5,9.50718157181572,0.0006399007999999999
456.27,704.08,16591.0,6.0275e-05,17.917,22.161,71.586,40.337,68.224,608.42,0.013194,66.906,0.085435,supercritical,CO2,C124389,carbon-dioxide,304.18,73.8,10.6,0.09433962264150944,1.5,9.54037940379404,0.000638915
456.27,706.54,16616.0,6.0183e-05,17.907,22.159,71.548,40.342,68.199,609.7,0.012887,67.066,0.085592,supercritical,CO2,C124389,carbon-dioxide,304.18,73.8,10.6,0.09433962264150944,1.5,9.573712737127371,0.0006379398
456.27,709.0,16641.0,6.0091e-05,17.896,22.157,71.511,40.346,68.173,610.98,0.012583,67.226,0.085747,supercritical,CO2,C124389,carbon-dioxide,304.18,73.8,10.6,0.09433962264150944,1.5,9.607046070460704,0.0006369645999999999
456.27,711.46,16667.0,6e-05,17.886,22.155,71.474,40.351,68.148,612.25,0.012281,67.385,0.085903,supercritical,CO2,C124389,carbon-dioxide,304.18,73.8,10.6,0.09433962264150944,1.5,9.64037940379404,0.000636
456.27,713.92,16692.0,5.991e-05,17.876,22.153,71.438,40.355,68.122,613.52,0.011982,67.545,0.086058,supercritical,CO2,C124389,carbon-dioxide,304.18,73.8,10.6,0.09433962264150944,1.5,9.67371273712737,0.000635046
456.27,716.38,16717.0,5.9821e-05,17.865,22.151,71.401,40.359,68.097,614.79,0.011685,67.704,0.086212,supercritical,CO2,C124389,carbon-dioxide,304.18,73.8,10.6,0.09433962264150944,1.5,9.707046070460706,0.0006341026
456.27,718.83,16742.0,5.9732e-05,17.855,22.149,71.364,40.364,68.072,616.06,0.011391,67.862,0.086367,supercritical,CO2,C124389,carbon-dioxide,304.18,73.8,10.6,0.09433962264150944,1.5,9.740243902439026,0.0006331592
456.27,721.29,16766.0,5.9643e-05,17.845,22.147,71.328,40.368,68.047,617.32,0.0111,68.021,0.086521,supercritical,CO2,C124389,carbon-dioxide,304.18,73.8,10.6,0.09433962264150944,1.5,9.773577235772358,0.0006322157999999999
456.27,723.75,16791.0,5.9556e-05,17.835,22.145,71.292,40.373,68.022,618.58,0.010811,68.179,0.086675,supercritical,CO2,C124389,carbon-dioxide,304.18,73.8,10.6,0.09433962264150944,1.5,9.80691056910569,0.0006312935999999999
456.27,726.21,16816.0,5.9469e-05,17.825,22.143,71.256,40.377,67.998,619.84,0.010524,68.337,0.086828,supercritical,CO2,C124389,carbon-dioxide,304.18,73.8,10.6,0.09433962264150944,1.5,9.840243902439026,0.0006303713999999999
456.27,728.67,16840.0,5.9383e-05,17.815,22.142,71.22,40.382,67.973,621.1,0.01024,68.495,0.086981,supercritical,CO2,C124389,carbon-dioxide,304.18,73.8,10.6,0.09433962264150944,1.5,9.873577235772357,0.0006294597999999999
456.27,731.13,16864.0,5.9297e-05,17.805,22.14,71.185,40.386,67.949,622.36,0.0099586,68.652,0.087134,supercritical,CO2,C124389,carbon-dioxide,304.18,73.8,10.6,0.09433962264150944,1.5,9.906910569105692,0.0006285481999999999
456.27,733.58,16888.0,5.9212e-05,17.795,22.138,71.149,40.391,67.924,623.61,0.0096793,68.809,0.087286,supercritical,CO2,C124389,carbon-dioxide,304.18,73.8,10.6,0.09433962264150944,1.5,9.940108401084013,0.0006276472
456.27,736.04,16913.0,5.9128e-05,17.785,22.137,71.114,40.395,67.9,624.86,0.0094024,68.966,0.087439,supercritical,CO2,C124389,carbon-dioxide,304.18,73.8,10.6,0.09433962264150944,1.5,9.973441734417344,0.0006267568
456.27,738.5,16937.0,5.9044e-05,17.775,22.135,71.078,40.4,67.876,626.11,0.0091279,69.123,0.087591,supercritical,CO2,C124389,carbon-dioxide,304.18,73.8,10.6,0.09433962264150944,1.5,10.006775067750677,0.0006258663999999999
456.27,740.96,16960.0,5.8961e-05,17.765,22.134,71.043,40.404,67.852,627.35,0.0088556,69.279,0.087742,supercritical,CO2,C124389,carbon-dioxide,304.18,73.8,10.6,0.09433962264150944,1.5,10.040108401084012,0.0006249866
456.27,743.42,16984.0,5.8878e-05,17.755,22.132,71.008,40.408,67.828,628.59,0.0085857,69.435,0.087893,supercritical,CO2,C124389,carbon-dioxide,304.18,73.8,10.6,0.09433962264150944,1.5,10.073441734417344,0.0006241068
456.27,745.88,17008.0,5.8796e-05,17.745,22.131,70.974,40.413,67.804,629.84,0.008318,69.591,0.088044,supercritical,CO2,C124389,carbon-dioxide,304.18,73.8,10.6,0.09433962264150944,1.5,10.106775067750679,0.0006232375999999999
456.27,748.33,17031.0,5.8715e-05,17.736,22.129,70.939,40.417,67.78,631.07,0.0080526,69.746,0.088195,supercritical,CO2,C124389,carbon-dioxide,304.18,73.8,10.6,0.09433962264150944,1.5,10.139972899728999,0.0006223789999999999
456.27,750.79,17055.0,5.8634e-05,17.726,22.128,70.905,40.422,67.757,632.31,0.0077893,69.902,0.088346,supercritical,CO2,C124389,carbon-dioxide,304.18,73.8,10.6,0.09433962264150944,1.5,10.17330623306233,0.0006215204
456.27,753.25,17078.0,5.8554e-05,17.716,22.127,70.87,40.426,67.733,633.54,0.0075283,70.057,0.088496,supercritical,CO2,C124389,carbon-dioxide,304.18,73.8,10.6,0.09433962264150944,1.5,10.206639566395664,0.0006206724
456.27,755.71,17102.0,5.8474e-05,17.707,22.126,70.836,40.431,67.71,634.77,0.0072694,70.211,0.088646,supercritical,CO2,C124389,carbon-dioxide,304.18,73.8,10.6,0.09433962264150944,1.5,10.239972899728999,0.0006198244
456.27,758.17,17125.0,5.8395e-05,17.697,22.124,70.802,40.435,67.686,636.0,0.0070126,70.366,0.088795,supercritical,CO2,C124389,carbon-dioxide,304.18,73.8,10.6,0.09433962264150944,1.5,10.27330623306233,0.000618987
456.27,760.63,17148.0,5.8316e-05,17.688,22.123,70.768,40.44,67.663,637.23,0.006758,70.52,0.088944,supercritical,CO2,C124389,carbon-dioxide,304.18,73.8,10.6,0.09433962264150944,1.5,10.306639566395665,0.0006181496
456.27,763.08,17171.0,5.8238e-05,17.678,22.122,70.734,40.444,67.64,638.45,0.0065055,70.674,0.089093,supercritical,CO2,C124389,carbon-dioxide,304.18,73.8,10.6,0.09433962264150944,1.5,10.339837398373986,0.0006173228
456.27,765.54,17194.0,5.8161e-05,17.669,22.121,70.7,40.449,67.617,639.68,0.006255,70.828,0.089242,supercritical,CO2,C124389,carbon-dioxide,304.18,73.8,10.6,0.09433962264150944,1.5,10.373170731707317,0.0006165065999999999
456.27,768.0,17216.0,5.8084e-05,17.659,22.12,70.667,40.453,67.595,640.9,0.0060066,70.981,0.08939,supercritical,CO2,C124389,carbon-dioxide,304.18,73.8,10.6,0.09433962264150944,1.5,10.40650406504065,0.0006156903999999999
456.27,770.46,17239.0,5.8008e-05,17.65,22.119,70.633,40.458,67.572,642.11,0.0057602,71.135,0.089539,supercritical,CO2,C124389,carbon-dioxide,304.18,73.8,10.6,0.09433962264150944,1.5,10.439837398373985,0.0006148848
456.27,772.92,17262.0,5.7932e-05,17.641,22.118,70.6,40.462,67.549,643.33,0.0055159,71.287,0.089687,supercritical,CO2,C124389,carbon-dioxide,304.18,73.8,10.6,0.09433962264150944,1.5,10.473170731707317,0.0006140792
456.27,775.38,17284.0,5.7856e-05,17.631,22.117,70.567,40.467,67.527,644.54,0.0052735,71.44,0.089834,supercritical,CO2,C124389,carbon-dioxide,304.18,73.8,10.6,0.09433962264150944,1.5,10.506504065040652,0.0006132736
456.27,777.83,17307.0,5.7782e-05,17.622,22.116,70.534,40.471,67.504,645.75,0.0050331,71.593,0.089981,supercritical,CO2,C124389,carbon-dioxide,304.18,73.8,10.6,0.09433962264150944,1.5,10.539701897018972,0.0006124891999999999
456.27,780.29,17329.0,5.7707e-05,17.613,22.116,70.501,40.476,67.482,646.96,0.0047946,71.745,0.090129,supercritical,CO2,C124389,carbon-dioxide,304.18,73.8,10.6,0.09433962264150944,1.5,10.573035230352303,0.0006116941999999999
456.27,782.75,17351.0,5.7633e-05,17.604,22.115,70.468,40.48,67.46,648.16,0.0045581,71.897,0.090275,supercritical,CO2,C124389,carbon-dioxide,304.18,73.8,10.6,0.09433962264150944,1.5,10.606368563685637,0.0006109098
456.27,785.21,17373.0,5.756e-05,17.594,22.114,70.436,40.485,67.438,649.37,0.0043234,72.049,0.090422,supercritical,CO2,C124389,carbon-dioxide,304.18,73.8,10.6,0.09433962264150944,1.5,10.639701897018972,0.000610136
456.27,787.67,17395.0,5.7487e-05,17.585,22.113,70.403,40.489,67.416,650.57,0.0040907,72.2,0.090568,supercritical,CO2,C124389,carbon-dioxide,304.18,73.8,10.6,0.09433962264150944,1.5,10.673035230352303,0.0006093622
456.27,790.12,17417.0,5.7415e-05,17.576,22.113,70.371,40.494,67.394,651.77,0.0038598,72.351,0.090714,supercritical,CO2,C124389,carbon-dioxide,304.18,73.8,10.6,0.09433962264150944,1.5,10.706233062330623,0.0006085989999999999
456.27,792.58,17439.0,5.7343e-05,17.567,22.112,70.338,40.498,67.373,652.96,0.0036307,72.502,0.09086,supercritical,CO2,C124389,carbon-dioxide,304.18,73.8,10.6,0.09433962264150944,1.5,10.739566395663958,0.0006078358
456.27,795.04,17461.0,5.7271e-05,17.558,22.112,70.306,40.503,67.351,654.16,0.0034035,72.653,0.091005,supercritical,CO2,C124389,carbon-dioxide,304.18,73.8,10.6,0.09433962264150944,1.5,10.77289972899729,0.0006070725999999999
456.27,797.5,17482.0,5.72e-05,17.549,22.111,70.274,40.507,67.33,655.35,0.0031781,72.804,0.091151,supercritical,CO2,C124389,carbon-dioxide,304.18,73.8,10.6,0.09433962264150944,1.5,10.806233062330623,0.0006063199999999999
456.27,799.96,17504.0,5.713e-05,17.54,22.111,70.242,40.512,67.308,656.54,0.0029545,72.954,0.091296,supercritical,CO2,C124389,carbon-dioxide,304.18,73.8,10.6,0.09433962264150944,1.5,10.839566395663958,0.000605578
456.27,802.42,17525.0,5.706e-05,17.531,22.11,70.211,40.516,67.287,657.72,0.0027327,73.104,0.09144,supercritical,CO2,C124389,carbon-dioxide,304.18,73.8,10.6,0.09433962264150944,1.5,10.87289972899729,0.000604836
456.27,804.87,17547.0,5.699e-05,17.523,22.11,70.179,40.521,67.266,658.91,0.0025126,73.254,0.091585,supercritical,CO2,C124389,carbon-dioxide,304.18,73.8,10.6,0.09433962264150944,1.5,10.90609756097561,0.000604094
456.27,807.33,17568.0,5.6921e-05,17.514,22.109,70.147,40.525,67.245,660.09,0.0022942,73.404,0.091729,supercritical,CO2,C124389,carbon-dioxide,304.18,73.8,10.6,0.09433962264150944,1.5,10.939430894308945,0.0006033626
456.27,809.79,17589.0,5.6853e-05,17.505,22.109,70.116,40.53,67.224,661.27,0.0020776,73.553,0.091873,supercritical,CO2,C124389,carbon-dioxide,304.18,73.8,10.6,0.09433962264150944,1.5,10.972764227642276,0.0006026418
456.27,812.25,17611.0,5.6784e-05,17.496,22.109,70.085,40.535,67.204,662.45,0.0018626,73.702,0.092017,supercritical,CO2,C124389,carbon-dioxide,304.18,73.8,10.6,0.09433962264150944,1.5,11.00609756097561,0.0006019103999999999
456.27,814.71,17632.0,5.6716e-05,17.488,22.108,70.053,40.539,67.183,663.63,0.0016494,73.851,0.092161,supercritical,CO2,C124389,carbon-dioxide,304.18,73.8,10.6,0.09433962264150944,1.5,11.039430894308945,0.0006011895999999999
456.27,817.17,17653.0,5.6649e-05,17.479,22.108,70.022,40.544,67.162,664.8,0.0014378,74.0,0.092304,supercritical,CO2,C124389,carbon-dioxide,304.18,73.8,10.6,0.09433962264150944,1.5,11.072764227642276,0.0006004793999999999
456.27,819.62,17673.0,5.6582e-05,17.47,22.108,69.991,40.548,67.142,665.97,0.0012278,74.148,0.092447,supercritical,CO2,C124389,carbon-dioxide,304.18,73.8,10.6,0.09433962264150944,1.5,11.105962059620596,0.0005997692
456.27,822.08,17694.0,5.6515e-05,17.462,22.108,69.96,40.553,67.122,667.14,0.0010195,74.297,0.09259,supercritical,CO2,C124389,carbon-dioxide,304.18,73.8,10.6,0.09433962264150944,1.5,11.139295392953931,0.0005990589999999999
456.27,824.54,17715.0,5.6449e-05,17.453,22.107,69.93,40.557,67.101,668.31,0.00081282,74.445,0.092732,supercritical,CO2,C124389,carbon-dioxide,304.18,73.8,10.6,0.09433962264150944,1.5,11.172628726287263,0.0005983593999999999
456.27,827.0,17736.0,5.6384e-05,17.444,22.107,69.899,40.562,67.081,669.47,0.00060772,74.593,0.092875,supercritical,CO2,C124389,carbon-dioxide,304.18,73.8,10.6,0.09433962264150944,1.5,11.205962059620596,0.0005976703999999999
456.27,829.46,17756.0,5.6318e-05,17.436,22.107,69.868,40.566,67.061,670.63,0.00040419,74.74,0.093017,supercritical,CO2,C124389,carbon-dioxide,304.18,73.8,10.6,0.09433962264150944,1.5,11.239295392953931,0.0005969707999999999
456.27,831.92,17777.0,5.6253e-05,17.427,22.107,69.838,40.571,67.041,671.79,0.00020223,74.888,0.093159,supercritical,CO2,C124389,carbon-dioxide,304.18,73.8,10.6,0.09433962264150944,1.5,11.272628726287262,0.0005962817999999999
456.27,834.37,17797.0,5.6189e-05,17.419,22.107,69.808,40.575,67.022,672.95,1.8225e-06,75.035,0.0933,supercritical,CO2,C124389,carbon-dioxide,304.18,73.8,10.6,0.09433962264150944,1.5,11.305826558265583,0.0005956033999999999
456.27,836.83,17817.0,5.6125e-05,17.411,22.107,69.777,40.58,67.002,674.11,-0.00019705,75.182,0.093442,supercritical,CO2,C124389,carbon-dioxide,304.18,73.8,10.6,0.09433962264150944,1.5,11.339159891598918,0.000594925
456.27,839.29,17838.0,5.6061e-05,17.402,22.107,69.747,40.585,66.982,675.26,-0.00039441,75.329,0.093583,supercritical,CO2,C124389,carbon-dioxide,304.18,73.8,10.6,0.09433962264150944,1.5,11.37249322493225,0.0005942466
456.27,841.75,17858.0,5.5998e-05,17.394,22.107,69.717,40.589,66.963,676.41,-0.00059027,75.475,0.093724,supercritical,CO2,C124389,carbon-dioxide,304.18,73.8,10.6,0.09433962264150944,1.5,11.405826558265582,0.0005935787999999999
456.27,844.21,17878.0,5.5935e-05,17.385,22.107,69.687,40.594,66.944,677.56,-0.00078463,75.622,0.093865,supercritical,CO2,C124389,carbon-dioxide,304.18,73.8,10.6,0.09433962264150944,1.5,11.439159891598917,0.0005929109999999999
456.27,846.67,17898.0,5.5872e-05,17.377,22.108,69.658,40.598,66.924,678.71,-0.00097753,75.768,0.094005,supercritical,CO2,C124389,carbon-dioxide,304.18,73.8,10.6,0.09433962264150944,1.5,11.472493224932249,0.0005922432
456.27,849.12,17918.0,5.581e-05,17.369,22.108,69.628,40.603,66.905,679.85,-0.001169,75.914,0.094146,supercritical,CO2,C124389,carbon-dioxide,304.18,73.8,10.6,0.09433962264150944,1.5,11.50569105691057,0.000591586
456.27,851.58,17938.0,5.5748e-05,17.361,22.108,69.598,40.607,66.886,681.0,-0.001359,76.059,0.094286,supercritical,CO2,C124389,carbon-dioxide,304.18,73.8,10.6,0.09433962264150944,1.5,11.539024390243904,0.0005909288
456.27,854.04,17958.0,5.5687e-05,17.352,22.108,69.569,40.612,66.867,682.14,-0.0015475,76.205,0.094426,supercritical,CO2,C124389,carbon-dioxide,304.18,73.8,10.6,0.09433962264150944,1.5,11.572357723577236,0.0005902821999999999
456.27,856.5,17977.0,5.5625e-05,17.344,22.108,69.539,40.617,66.849,683.27,-0.0017347,76.35,0.094566,supercritical,CO2,C124389,carbon-dioxide,304.18,73.8,10.6,0.09433962264150944,1.5,11.605691056910569,0.0005896249999999999
456.27,858.96,17997.0,5.5565e-05,17.336,22.109,69.51,40.621,66.83,684.41,-0.0019204,76.495,0.094705,supercritical,CO2,C124389,carbon-dioxide,304.18,73.8,10.6,0.09433962264150944,1.5,11.639024390243904,0.0005889889999999999
456.27,861.42,18017.0,5.5504e-05,17.328,22.109,69.481,40.626,66.811,685.54,-0.0021048,76.64,0.094844,supercritical,CO2,C124389,carbon-dioxide,304.18,73.8,10.6,0.09433962264150944,1.5,11.672357723577235,0.0005883424
456.27,863.87,18036.0,5.5444e-05,17.32,22.109,69.452,40.63,66.793,686.68,-0.0022878,76.785,0.094983,supercritical,CO2,C124389,carbon-dioxide,304.18,73.8,10.6,0.09433962264150944,1.5,11.705555555555556,0.0005877063999999999
456.27,866.33,18056.0,5.5385e-05,17.312,22.11,69.423,40.635,66.774,687.81,-0.0024694,76.93,0.095122,supercritical,CO2,C124389,carbon-dioxide,304.18,73.8,10.6,0.09433962264150944,1.5,11.73888888888889,0.0005870809999999999
456.27,868.79,18075.0,5.5325e-05,17.304,22.11,69.394,40.639,66.756,688.93,-0.0026497,77.074,0.095261,supercritical,CO2,C124389,carbon-dioxide,304.18,73.8,10.6,0.09433962264150944,1.5,11.772222222222222,0.000586445
456.27,871.25,18094.0,5.5266e-05,17.296,22.111,69.365,40.644,66.738,690.06,-0.0028286,77.218,0.095399,supercritical,CO2,C124389,carbon-dioxide,304.18,73.8,10.6,0.09433962264150944,1.5,11.805555555555555,0.0005858196
456.27,873.71,18113.0,5.5208e-05,17.288,22.111,69.336,40.649,66.72,691.18,-0.0030063,77.362,0.095538,supercritical,CO2,C124389,carbon-dioxide,304.18,73.8,10.6,0.09433962264150944,1.5,11.83888888888889,0.0005852047999999999
456.27,876.17,18133.0,5.5149e-05,17.28,22.112,69.308,40.653,66.702,692.3,-0.0031826,77.506,0.095676,supercritical,CO2,C124389,carbon-dioxide,304.18,73.8,10.6,0.09433962264150944,1.5,11.872222222222222,0.0005845793999999999
456.27,878.62,18152.0,5.5091e-05,17.272,22.112,69.279,40.658,66.684,693.42,-0.0033576,77.649,0.095814,supercritical,CO2,C124389,carbon-dioxide,304.18,73.8,10.6,0.09433962264150944,1.5,11.905420054200542,0.0005839646
456.27,881.08,18171.0,5.5034e-05,17.264,22.113,69.251,40.662,66.666,694.54,-0.0035314,77.793,0.095951,supercritical,CO2,C124389,carbon-dioxide,304.18,73.8,10.6,0.09433962264150944,1.5,11.938753387533877,0.0005833604
456.27,883.54,18190.0,5.4976e-05,17.256,22.113,69.223,40.667,66.648,695.65,-0.0037039,77.936,0.096089,supercritical,CO2,C124389,carbon-dioxide,304.18,73.8,10.6,0.09433962264150944,1.5,11.972086720867209,0.0005827456
456.27,886.0,18209.0,5.4919e-05,17.248,22.114,69.194,40.672,66.631,696.77,-0.0038751,78.079,0.096226,supercritical,CO2,C124389,carbon-dioxide,304.18,73.8,10.6,0.09433962264150944,1.5,12.005420054200542,0.0005821413999999999
456.27,888.46,18227.0,5.4863e-05,17.24,22.115,69.166,40.676,66.613,697.88,-0.0040451,78.221,0.096363,supercritical,CO2,C124389,carbon-dioxide,304.18,73.8,10.6,0.09433962264150944,1.5,12.038753387533877,0.0005815477999999999
456.27,890.92,18246.0,5.4806e-05,17.233,22.115,69.138,40.681,66.596,698.98,-0.0042138,78.364,0.0965,supercritical,CO2,C124389,carbon-dioxide,304.18,73.8,10.6,0.09433962264150944,1.5,12.072086720867208,0.0005809435999999999
456.27,893.37,18265.0,5.475e-05,17.225,22.116,69.11,40.685,66.579,700.09,-0.0043814,78.506,0.096637,supercritical,CO2,C124389,carbon-dioxide,304.18,73.8,10.6,0.09433962264150944,1.5,12.105284552845529,0.00058035