Temperature (K),Pressure (bar),Density (mol/m3),Volume (m3/mol),Internal Energy (kJ/mol),Enthalpy (kJ/mol),Entropy (J/mol*K),Cv (J/mol*K),Cp (J/mol*K),Sound Spd. (m/s),Joule-Thomson (K/bar),Viscosity (uPa*s),Therm. Cond. (W/m*K),Phase,substance,substance_id,substance_name,Tc,Pc,rhoc,Vmc,Tr,Pr,Vmr
577.94,677.04,12257.0,8.1586e-05,24.615,30.139,87.48,41.57,62.517,542.2,0.024306,50.549,0.072756,supercritical,CO2,C124389,carbon-dioxide,304.18,73.8,10.6,0.09433962264150944,1.9,9.173983739837398,0.0008648115999999999
577.94,679.5,12285.0,8.1397e-05,24.604,30.135,87.439,41.576,62.524,543.16,0.023978,50.663,0.072878,supercritical,CO2,C124389,carbon-dioxide,304.18,73.8,10.6,0.09433962264150944,1.9,9.207317073170731,0.0008628081999999999
577.94,681.96,12314.0,8.1209e-05,24.593,30.131,87.398,41.581,62.53,544.12,0.023652,50.778,0.072999,supercritical,CO2,C124389,carbon-dioxide,304.18,73.8,10.6,0.09433962264150944,1.9,9.240650406504066,0.0008608153999999999
577.94,684.42,12342.0,8.1023e-05,24.582,30.128,87.357,41.586,62.537,545.08,0.023327,50.893,0.07312,supercritical,CO2,C124389,carbon-dioxide,304.18,73.8,10.6,0.09433962264150944,1.9,9.273983739837398,0.0008588437999999999
577.94,686.88,12370.0,8.0838e-05,24.572,30.124,87.317,41.591,62.543,546.04,0.023005,51.007,0.073241,supercritical,CO2,C124389,carbon-dioxide,304.18,73.8,10.6,0.09433962264150944,1.9,9.307317073170733,0.0008568828
577.94,689.33,12399.0,8.0655e-05,24.561,30.121,87.276,41.596,62.549,547.0,0.022686,51.122,0.073362,supercritical,CO2,C124389,carbon-dioxide,304.18,73.8,10.6,0.09433962264150944,1.9,9.340514905149053,0.000854943
577.94,691.79,12427.0,8.0473e-05,24.55,30.117,87.236,41.601,62.555,547.96,0.022368,51.236,0.073483,supercritical,CO2,C124389,carbon-dioxide,304.18,73.8,10.6,0.09433962264150944,1.9,9.373848238482385,0.0008530138
577.94,694.25,12454.0,8.0292e-05,24.54,30.114,87.196,41.606,62.56,548.92,0.022052,51.351,0.073603,supercritical,CO2,C124389,carbon-dioxide,304.18,73.8,10.6,0.09433962264150944,1.9,9.407181571815718,0.0008510951999999999
577.94,696.71,12482.0,8.0113e-05,24.529,30.11,87.156,41.612,62.566,549.88,0.021739,51.465,0.073723,supercritical,CO2,C124389,carbon-dioxide,304.18,73.8,10.6,0.09433962264150944,1.9,9.440514905149053,0.0008491977999999999
577.94,699.17,12510.0,7.9936e-05,24.518,30.107,87.116,41.617,62.571,550.84,0.021427,51.58,0.073843,supercritical,CO2,C124389,carbon-dioxide,304.18,73.8,10.6,0.09433962264150944,1.9,9.473848238482384,0.0008473215999999999
577.94,701.63,12538.0,7.976e-05,24.508,30.104,87.077,41.622,62.577,551.79,0.021118,51.694,0.073963,supercritical,CO2,C124389,carbon-dioxide,304.18,73.8,10.6,0.09433962264150944,1.9,9.50718157181572,0.0008454559999999999
577.94,704.08,12565.0,7.9585e-05,24.497,30.101,87.037,41.627,62.582,552.75,0.020811,51.809,0.074083,supercritical,CO2,C124389,carbon-dioxide,304.18,73.8,10.6,0.09433962264150944,1.9,9.54037940379404,0.000843601
577.94,706.54,12593.0,7.9411e-05,24.487,30.097,86.998,41.632,62.587,553.71,0.020506,51.923,0.074202,supercritical,CO2,C124389,carbon-dioxide,304.18,73.8,10.6,0.09433962264150944,1.9,9.573712737127371,0.0008417565999999999
577.94,709.0,12620.0,7.9239e-05,24.476,30.094,86.959,41.637,62.592,554.67,0.020202,52.037,0.074321,supercritical,CO2,C124389,carbon-dioxide,304.18,73.8,10.6,0.09433962264150944,1.9,9.607046070460704,0.0008399334
577.94,711.46,12647.0,7.9069e-05,24.466,30.091,86.92,41.642,62.597,555.62,0.019901,52.152,0.07444,supercritical,CO2,C124389,carbon-dioxide,304.18,73.8,10.6,0.09433962264150944,1.9,9.64037940379404,0.0008381313999999999
577.94,713.92,12674.0,7.8899e-05,24.455,30.088,86.881,41.647,62.601,556.58,0.019602,52.266,0.074558,supercritical,CO2,C124389,carbon-dioxide,304.18,73.8,10.6,0.09433962264150944,1.9,9.67371273712737,0.0008363293999999999
577.94,716.38,12701.0,7.8731e-05,24.445,30.085,86.842,41.652,62.606,557.53,0.019305,52.38,0.074677,supercritical,CO2,C124389,carbon-dioxide,304.18,73.8,10.6,0.09433962264150944,1.9,9.707046070460706,0.0008345485999999999
577.94,718.83,12728.0,7.8564e-05,24.435,30.082,86.804,41.657,62.61,558.49,0.01901,52.494,0.074795,supercritical,CO2,C124389,carbon-dioxide,304.18,73.8,10.6,0.09433962264150944,1.9,9.740243902439026,0.0008327784
577.94,721.29,12755.0,7.8399e-05,24.425,30.079,86.765,41.662,62.615,559.44,0.018716,52.609,0.074913,supercritical,CO2,C124389,carbon-dioxide,304.18,73.8,10.6,0.09433962264150944,1.9,9.773577235772358,0.0008310294
577.94,723.75,12782.0,7.8235e-05,24.414,30.077,86.727,41.667,62.619,560.4,0.018425,52.723,0.075031,supercritical,CO2,C124389,carbon-dioxide,304.18,73.8,10.6,0.09433962264150944,1.9,9.80691056910569,0.0008292909999999999
577.94,726.21,12809.0,7.8072e-05,24.404,30.074,86.689,41.672,62.623,561.35,0.018136,52.837,0.075148,supercritical,CO2,C124389,carbon-dioxide,304.18,73.8,10.6,0.09433962264150944,1.9,9.840243902439026,0.0008275631999999999
577.94,728.67,12835.0,7.791e-05,24.394,30.071,86.651,41.677,62.627,562.3,0.017848,52.951,0.075266,supercritical,CO2,C124389,carbon-dioxide,304.18,73.8,10.6,0.09433962264150944,1.9,9.873577235772357,0.000825846
577.94,731.13,12862.0,7.7749e-05,24.384,30.068,86.613,41.682,62.631,563.25,0.017563,53.065,0.075383,supercritical,CO2,C124389,carbon-dioxide,304.18,73.8,10.6,0.09433962264150944,1.9,9.906910569105692,0.0008241394
577.94,733.58,12888.0,7.759e-05,24.374,30.066,86.575,41.687,62.635,564.21,0.017279,53.179,0.0755,supercritical,CO2,C124389,carbon-dioxide,304.18,73.8,10.6,0.09433962264150944,1.9,9.940108401084013,0.0008224539999999999
577.94,736.04,12915.0,7.7432e-05,24.364,30.063,86.538,41.692,62.638,565.16,0.016997,53.293,0.075617,supercritical,CO2,C124389,carbon-dioxide,304.18,73.8,10.6,0.09433962264150944,1.9,9.973441734417344,0.0008207792
577.94,738.5,12941.0,7.7275e-05,24.354,30.06,86.5,41.696,62.642,566.11,0.016717,53.407,0.075733,supercritical,CO2,C124389,carbon-dioxide,304.18,73.8,10.6,0.09433962264150944,1.9,10.006775067750677,0.0008191149999999999
577.94,740.96,12967.0,7.7119e-05,24.344,30.058,86.463,41.701,62.645,567.06,0.016439,53.52,0.075849,supercritical,CO2,C124389,carbon-dioxide,304.18,73.8,10.6,0.09433962264150944,1.9,10.040108401084012,0.0008174614
577.94,743.42,12993.0,7.6965e-05,24.334,30.055,86.426,41.706,62.648,568.01,0.016163,53.634,0.075966,supercritical,CO2,C124389,carbon-dioxide,304.18,73.8,10.6,0.09433962264150944,1.9,10.073441734417344,0.000815829
577.94,745.88,13019.0,7.6811e-05,24.324,30.053,86.389,41.711,62.652,568.96,0.015888,53.748,0.076082,supercritical,CO2,C124389,carbon-dioxide,304.18,73.8,10.6,0.09433962264150944,1.9,10.106775067750679,0.0008141965999999999
577.94,748.33,13045.0,7.6659e-05,24.314,30.05,86.352,41.716,62.655,569.91,0.015616,53.862,0.076197,supercritical,CO2,C124389,carbon-dioxide,304.18,73.8,10.6,0.09433962264150944,1.9,10.139972899728999,0.0008125853999999999
577.94,750.79,13071.0,7.6507e-05,24.304,30.048,86.316,41.721,62.658,570.85,0.015345,53.975,0.076313,supercritical,CO2,C124389,carbon-dioxide,304.18,73.8,10.6,0.09433962264150944,1.9,10.17330623306233,0.0008109742
577.94,753.25,13096.0,7.6357e-05,24.294,30.046,86.279,41.726,62.661,571.8,0.015076,54.089,0.076428,supercritical,CO2,C124389,carbon-dioxide,304.18,73.8,10.6,0.09433962264150944,1.9,10.206639566395664,0.0008093842
577.94,755.71,13122.0,7.6208e-05,24.284,30.043,86.243,41.731,62.664,572.75,0.014808,54.203,0.076543,supercritical,CO2,C124389,carbon-dioxide,304.18,73.8,10.6,0.09433962264150944,1.9,10.239972899728999,0.0008078047999999999
577.94,758.17,13147.0,7.606e-05,24.274,30.041,86.206,41.735,62.666,573.69,0.014543,54.316,0.076658,supercritical,CO2,C124389,carbon-dioxide,304.18,73.8,10.6,0.09433962264150944,1.9,10.27330623306233,0.000806236
577.94,760.63,13173.0,7.5913e-05,24.265,30.039,86.17,41.74,62.669,574.64,0.014279,54.43,0.076773,supercritical,CO2,C124389,carbon-dioxide,304.18,73.8,10.6,0.09433962264150944,1.9,10.306639566395665,0.0008046778
577.94,763.08,13198.0,7.5768e-05,24.255,30.037,86.134,41.745,62.672,575.58,0.014017,54.543,0.076887,supercritical,CO2,C124389,carbon-dioxide,304.18,73.8,10.6,0.09433962264150944,1.9,10.339837398373986,0.0008031407999999999
577.94,765.54,13224.0,7.5623e-05,24.245,30.035,86.098,41.75,62.674,576.53,0.013756,54.656,0.077002,supercritical,CO2,C124389,carbon-dioxide,304.18,73.8,10.6,0.09433962264150944,1.9,10.373170731707317,0.0008016038
577.94,768.0,13249.0,7.5479e-05,24.236,30.032,86.062,41.755,62.676,577.47,0.013497,54.77,0.077116,supercritical,CO2,C124389,carbon-dioxide,304.18,73.8,10.6,0.09433962264150944,1.9,10.40650406504065,0.0008000774
577.94,770.46,13274.0,7.5336e-05,24.226,30.03,86.027,41.759,62.679,578.41,0.01324,54.883,0.07723,supercritical,CO2,C124389,carbon-dioxide,304.18,73.8,10.6,0.09433962264150944,1.9,10.439837398373985,0.0007985615999999999
577.94,772.92,13299.0,7.5195e-05,24.216,30.028,85.991,41.764,62.681,579.36,0.012985,54.996,0.077344,supercritical,CO2,C124389,carbon-dioxide,304.18,73.8,10.6,0.09433962264150944,1.9,10.473170731707317,0.0007970669999999999
577.94,775.38,13324.0,7.5054e-05,24.207,30.026,85.956,41.769,62.683,580.3,0.012731,55.11,0.077457,supercritical,CO2,C124389,carbon-dioxide,304.18,73.8,10.6,0.09433962264150944,1.9,10.506504065040652,0.0007955724
577.94,777.83,13349.0,7.4914e-05,24.197,30.024,85.921,41.774,62.685,581.24,0.012479,55.223,0.077571,supercritical,CO2,C124389,carbon-dioxide,304.18,73.8,10.6,0.09433962264150944,1.9,10.539701897018972,0.0007940883999999999
577.94,780.29,13373.0,7.4775e-05,24.188,30.022,85.885,41.778,62.687,582.18,0.012229,55.336,0.077684,supercritical,CO2,C124389,carbon-dioxide,304.18,73.8,10.6,0.09433962264150944,1.9,10.573035230352303,0.000792615
577.94,782.75,13398.0,7.4638e-05,24.178,30.021,85.85,41.783,62.689,583.12,0.01198,55.449,0.077797,supercritical,CO2,C124389,carbon-dioxide,304.18,73.8,10.6,0.09433962264150944,1.9,10.606368563685637,0.0007911627999999999
577.94,785.21,13423.0,7.4501e-05,24.169,30.019,85.816,41.788,62.691,584.06,0.011733,55.562,0.07791,supercritical,CO2,C124389,carbon-dioxide,304.18,73.8,10.6,0.09433962264150944,1.9,10.639701897018972,0.0007897105999999999
577.94,787.67,13447.0,7.4365e-05,24.16,30.017,85.781,41.793,62.692,584.99,0.011487,55.675,0.078022,supercritical,CO2,C124389,carbon-dioxide,304.18,73.8,10.6,0.09433962264150944,1.9,10.673035230352303,0.0007882689999999999
577.94,790.12,13472.0,7.423e-05,24.15,30.015,85.746,41.797,62.694,585.93,0.011243,55.788,0.078135,supercritical,CO2,C124389,carbon-dioxide,304.18,73.8,10.6,0.09433962264150944,1.9,10.706233062330623,0.0007868379999999999
577.94,792.58,13496.0,7.4096e-05,24.141,30.014,85.712,41.802,62.696,586.87,0.011001,55.9,0.078247,supercritical,CO2,C124389,carbon-dioxide,304.18,73.8,10.6,0.09433962264150944,1.9,10.739566395663958,0.0007854175999999999
577.94,795.04,13520.0,7.3963e-05,24.132,30.012,85.677,41.807,62.697,587.81,0.01076,56.013,0.078359,supercritical,CO2,C124389,carbon-dioxide,304.18,73.8,10.6,0.09433962264150944,1.9,10.77289972899729,0.0007840077999999999
577.94,797.5,13545.0,7.3831e-05,24.122,30.01,85.643,41.812,62.699,588.74,0.01052,56.126,0.078471,supercritical,CO2,C124389,carbon-dioxide,304.18,73.8,10.6,0.09433962264150944,1.9,10.806233062330623,0.0007826086
577.94,799.96,13569.0,7.3699e-05,24.113,30.009,85.609,41.816,62.7,589.67,0.010282,56.239,0.078583,supercritical,CO2,C124389,carbon-dioxide,304.18,73.8,10.6,0.09433962264150944,1.9,10.839566395663958,0.0007812094
577.94,802.42,13593.0,7.3569e-05,24.104,30.007,85.575,41.821,62.701,590.61,0.010046,56.351,0.078694,supercritical,CO2,C124389,carbon-dioxide,304.18,73.8,10.6,0.09433962264150944,1.9,10.87289972899729,0.0007798314
577.94,804.87,13617.0,7.3439e-05,24.095,30.006,85.541,41.826,62.703,591.54,0.0098114,56.464,0.078805,supercritical,CO2,C124389,carbon-dioxide,304.18,73.8,10.6,0.09433962264150944,1.9,10.90609756097561,0.0007784533999999999
577.94,807.33,13641.0,7.3311e-05,24.085,30.004,85.507,41.83,62.704,592.47,0.009578,56.576,0.078917,supercritical,CO2,C124389,carbon-dioxide,304.18,73.8,10.6,0.09433962264150944,1.9,10.939430894308945,0.0007770966
577.94,809.79,13664.0,7.3183e-05,24.076,30.003,85.473,41.835,62.705,593.41,0.0093462,56.689,0.079028,supercritical,CO2,C124389,carbon-dioxide,304.18,73.8,10.6,0.09433962264150944,1.9,10.972764227642276,0.0007757397999999998
577.94,812.25,13688.0,7.3056e-05,24.067,30.001,85.44,41.84,62.706,594.34,0.0091159,56.801,0.079138,supercritical,CO2,C124389,carbon-dioxide,304.18,73.8,10.6,0.09433962264150944,1.9,11.00609756097561,0.0007743935999999999
577.94,814.71,13712.0,7.293e-05,24.058,30.0,85.406,41.844,62.707,595.27,0.008887,56.913,0.079249,supercritical,CO2,C124389,carbon-dioxide,304.18,73.8,10.6,0.09433962264150944,1.9,11.039430894308945,0.0007730579999999999
577.94,817.17,13735.0,7.2805e-05,24.049,29.998,85.373,41.849,62.708,596.2,0.0086596,57.026,0.07936,supercritical,CO2,C124389,carbon-dioxide,304.18,73.8,10.6,0.09433962264150944,1.9,11.072764227642276,0.000771733
577.94,819.62,13759.0,7.268e-05,24.04,29.997,85.34,41.854,62.709,597.13,0.0084336,57.138,0.07947,supercritical,CO2,C124389,carbon-dioxide,304.18,73.8,10.6,0.09433962264150944,1.9,11.105962059620596,0.000770408
577.94,822.08,13782.0,7.2557e-05,24.031,29.996,85.307,41.858,62.709,598.05,0.008209,57.25,0.07958,supercritical,CO2,C124389,carbon-dioxide,304.18,73.8,10.6,0.09433962264150944,1.9,11.139295392953931,0.0007691042
577.94,824.54,13806.0,7.2434e-05,24.022,29.995,85.274,41.863,62.71,598.98,0.0079859,57.362,0.07969,supercritical,CO2,C124389,carbon-dioxide,304.18,73.8,10.6,0.09433962264150944,1.9,11.172628726287263,0.0007678004
577.94,827.0,13829.0,7.2312e-05,24.013,29.993,85.241,41.868,62.711,599.91,0.0077641,57.474,0.0798,supercritical,CO2,C124389,carbon-dioxide,304.18,73.8,10.6,0.09433962264150944,1.9,11.205962059620596,0.0007665071999999999
577.94,829.46,13852.0,7.2191e-05,24.004,29.992,85.208,41.872,62.711,600.83,0.0075438,57.586,0.079909,supercritical,CO2,C124389,carbon-dioxide,304.18,73.8,10.6,0.09433962264150944,1.9,11.239295392953931,0.0007652246
577.94,831.92,13875.0,7.2071e-05,23.995,29.991,85.175,41.877,62.712,601.76,0.0073248,57.698,0.080019,supercritical,CO2,C124389,carbon-dioxide,304.18,73.8,10.6,0.09433962264150944,1.9,11.272628726287262,0.0007639525999999999
577.94,834.37,13898.0,7.1951e-05,23.987,29.99,85.143,41.881,62.713,602.68,0.0071072,57.81,0.080128,supercritical,CO2,C124389,carbon-dioxide,304.18,73.8,10.6,0.09433962264150944,1.9,11.305826558265583,0.0007626805999999999
577.94,836.83,13921.0,7.1832e-05,23.978,29.989,85.11,41.886,62.713,603.61,0.006891,57.921,0.080237,supercritical,CO2,C124389,carbon-dioxide,304.18,73.8,10.6,0.09433962264150944,1.9,11.339159891598918,0.0007614191999999999
577.94,839.29,13944.0,7.1714e-05,23.969,29.988,85.078,41.891,62.713,604.53,0.0066761,58.033,0.080346,supercritical,CO2,C124389,carbon-dioxide,304.18,73.8,10.6,0.09433962264150944,1.9,11.37249322493225,0.0007601683999999999
577.94,841.75,13967.0,7.1597e-05,23.96,29.987,85.046,41.895,62.714,605.45,0.0064625,58.145,0.080455,supercritical,CO2,C124389,carbon-dioxide,304.18,73.8,10.6,0.09433962264150944,1.9,11.405826558265582,0.0007589281999999999
577.94,844.21,13990.0,7.148e-05,23.951,29.986,85.014,41.9,62.714,606.37,0.0062503,58.256,0.080563,supercritical,CO2,C124389,carbon-dioxide,304.18,73.8,10.6,0.09433962264150944,1.9,11.439159891598917,0.000757688
577.94,846.67,14013.0,7.1364e-05,23.943,29.985,84.982,41.904,62.714,607.29,0.0060394,58.368,0.080672,supercritical,CO2,C124389,carbon-dioxide,304.18,73.8,10.6,0.09433962264150944,1.9,11.472493224932249,0.0007564584
577.94,849.12,14035.0,7.1249e-05,23.934,29.984,84.95,41.909,62.714,608.21,0.0058298,58.479,0.08078,supercritical,CO2,C124389,carbon-dioxide,304.18,73.8,10.6,0.09433962264150944,1.9,11.50569105691057,0.0007552393999999999
577.94,851.58,14058.0,7.1135e-05,23.925,29.983,84.918,41.914,62.715,609.13,0.0056215,58.591,0.080888,supercritical,CO2,C124389,carbon-dioxide,304.18,73.8,10.6,0.09433962264150944,1.9,11.539024390243904,0.000754031
577.94,854.04,14080.0,7.1021e-05,23.917,29.982,84.886,41.918,62.715,610.05,0.0054145,58.702,0.080996,supercritical,CO2,C124389,carbon-dioxide,304.18,73.8,10.6,0.09433962264150944,1.9,11.572357723577236,0.0007528225999999999
577.94,856.5,14103.0,7.0908e-05,23.908,29.981,84.855,41.923,62.715,610.96,0.0052087,58.813,0.081104,supercritical,CO2,C124389,carbon-dioxide,304.18,73.8,10.6,0.09433962264150944,1.9,11.605691056910569,0.0007516248000000001
577.94,858.96,14125.0,7.0796e-05,23.899,29.981,84.823,41.927,62.715,611.88,0.0050042,58.925,0.081212,supercritical,CO2,C124389,carbon-dioxide,304.18,73.8,10.6,0.09433962264150944,1.9,11.639024390243904,0.0007504375999999999
577.94,861.42,14147.0,7.0685e-05,23.891,29.98,84.792,41.932,62.715,612.8,0.004801,59.036,0.081319,supercritical,CO2,C124389,carbon-dioxide,304.18,73.8,10.6,0.09433962264150944,1.9,11.672357723577235,0.000749261
577.94,863.87,14170.0,7.0574e-05,23.882,29.979,84.76,41.936,62.715,613.71,0.004599,59.147,0.081426,supercritical,CO2,C124389,carbon-dioxide,304.18,73.8,10.6,0.09433962264150944,1.9,11.705555555555556,0.0007480844
577.94,866.33,14192.0,7.0464e-05,23.874,29.978,84.729,41.941,62.714,614.63,0.0043983,59.258,0.081534,supercritical,CO2,C124389,carbon-dioxide,304.18,73.8,10.6,0.09433962264150944,1.9,11.73888888888889,0.0007469183999999999
577.94,868.79,14214.0,7.0354e-05,23.865,29.978,84.698,41.945,62.714,615.54,0.0041988,59.369,0.081641,supercritical,CO2,C124389,carbon-dioxide,304.18,73.8,10.6,0.09433962264150944,1.9,11.772222222222222,0.0007457523999999999
577.94,871.25,14236.0,7.0246e-05,23.857,29.977,84.667,41.95,62.714,616.45,0.0040005,59.48,0.081747,supercritical,CO2,C124389,carbon-dioxide,304.18,73.8,10.6,0.09433962264150944,1.9,11.805555555555555,0.0007446076
577.94,873.71,14258.0,7.0138e-05,23.849,29.977,84.636,41.954,62.714,617.36,0.0038034,59.591,0.081854,supercritical,CO2,C124389,carbon-dioxide,304.18,73.8,10.6,0.09433962264150944,1.9,11.83888888888889,0.0007434627999999999
577.94,876.17,14280.0,7.003e-05,23.84,29.976,84.605,41.959,62.713,618.27,0.0036074,59.701,0.081961,supercritical,CO2,C124389,carbon-dioxide,304.18,73.8,10.6,0.09433962264150944,1.9,11.872222222222222,0.0007423180000000001
577.94,878.62,14301.0,6.9923e-05,23.832,29.975,84.575,41.963,62.713,619.18,0.0034127,59.812,0.082067,supercritical,CO2,C124389,carbon-dioxide,304.18,73.8,10.6,0.09433962264150944,1.9,11.905420054200542,0.0007411837999999999
577.94,881.08,14323.0,6.9817e-05,23.823,29.975,84.544,41.968,62.713,620.09,0.0032192,59.923,0.082173,supercritical,CO2,C124389,carbon-dioxide,304.18,73.8,10.6,0.09433962264150944,1.9,11.938753387533877,0.0007400601999999999
577.94,883.54,14345.0,6.9712e-05,23.815,29.974,84.514,41.973,62.712,621.0,0.0030268,60.033,0.082279,supercritical,CO2,C124389,carbon-dioxide,304.18,73.8,10.6,0.09433962264150944,1.9,11.972086720867209,0.0007389472
577.94,886.0,14366.0,6.9607e-05,23.807,29.974,84.483,41.977,62.712,621.91,0.0028355,60.144,0.082385,supercritical,CO2,C124389,carbon-dioxide,304.18,73.8,10.6,0.09433962264150944,1.9,12.005420054200542,0.0007378341999999999
577.94,888.46,14388.0,6.9503e-05,23.799,29.974,84.453,41.982,62.711,622.82,0.0026455,60.254,0.082491,supercritical,CO2,C124389,carbon-dioxide,304.18,73.8,10.6,0.09433962264150944,1.9,12.038753387533877,0.0007367318
577.94,890.92,14409.0,6.9399e-05,23.79,29.973,84.423,41.986,62.711,623.72,0.0024565,60.364,0.082597,supercritical,CO2,C124389,carbon-dioxide,304.18,73.8,10.6,0.09433962264150944,1.9,12.072086720867208,0.0007356294
577.94,893.37,14431.0,6.9296e-05,23.782,29.973,84.393,41.991,62.71,624.63,0.0022687,60.475,0.082702,supercritical,CO2,C124389,carbon-dioxide,304.18,73.8,10.6,0.09433962264150944,1.9,12.105284552845529,0.0007345375999999999
577.94,895.83,14452.0,6.9194e-05,23.774,29.972,84.363,41.995,62.709,625.53,0.002082,60.585,0.082808,supercritical,CO2,C124389,carbon-dioxide,304.18,73.8,10.6,0.09433962264150944,1.9,12.138617886178864,0.0007334564