Temperature (K),Pressure (bar),Density (mol/m3),Volume (m3/mol),Internal Energy (kJ/mol),Enthalpy (kJ/mol),Entropy (J/mol*K),Cv (J/mol*K),Cp (J/mol*K),Sound Spd. (m/s),Joule-Thomson (K/bar),Viscosity (uPa*s),Therm. Cond. (W/m*K),Phase,substance,substance_id,substance_name,Tc,Pc,rhoc,Vmc,Tr,Pr,Vmr
517.11,453.33,10760.0,9.2935e-05,22.703,26.916,85.135,40.321,64.909,451.41,0.073126,42.572,0.061961,supercritical,CO2,C124389,carbon-dioxide,304.18,73.8,10.6,0.09433962264150944,1.7,6.142682926829268,0.0009851109999999999
517.11,455.79,10804.0,9.2556e-05,22.686,26.904,85.068,40.329,64.932,452.55,0.072344,42.717,0.062133,supercritical,CO2,C124389,carbon-dioxide,304.18,73.8,10.6,0.09433962264150944,1.7,6.176016260162602,0.0009810936
517.11,458.25,10848.0,9.2182e-05,22.669,26.893,85.002,40.336,64.954,453.69,0.071568,42.862,0.062305,supercritical,CO2,C124389,carbon-dioxide,304.18,73.8,10.6,0.09433962264150944,1.7,6.2093495934959355,0.0009771292
517.11,460.71,10892.0,9.1813e-05,22.652,26.882,84.936,40.344,64.975,454.84,0.070799,43.008,0.062476,supercritical,CO2,C124389,carbon-dioxide,304.18,73.8,10.6,0.09433962264150944,1.7,6.242682926829268,0.0009732177999999999
517.11,463.17,10935.0,9.1449e-05,22.635,26.87,84.871,40.351,64.996,455.98,0.070037,43.153,0.062646,supercritical,CO2,C124389,carbon-dioxide,304.18,73.8,10.6,0.09433962264150944,1.7,6.276016260162602,0.0009693594
517.11,465.63,10978.0,9.1089e-05,22.618,26.859,84.806,40.358,65.016,457.13,0.069281,43.299,0.062817,supercritical,CO2,C124389,carbon-dioxide,304.18,73.8,10.6,0.09433962264150944,1.7,6.309349593495935,0.0009655433999999998
517.11,468.08,11021.0,9.0734e-05,22.601,26.848,84.742,40.365,65.035,458.28,0.068532,43.444,0.062987,supercritical,CO2,C124389,carbon-dioxide,304.18,73.8,10.6,0.09433962264150944,1.7,6.342547425474255,0.0009617804
517.11,470.54,11064.0,9.0384e-05,22.584,26.837,84.677,40.373,65.054,459.42,0.067789,43.59,0.063156,supercritical,CO2,C124389,carbon-dioxide,304.18,73.8,10.6,0.09433962264150944,1.7,6.375880758807589,0.0009580703999999999
517.11,473.0,11106.0,9.0038e-05,22.568,26.826,84.614,40.38,65.072,460.57,0.067053,43.735,0.063325,supercritical,CO2,C124389,carbon-dioxide,304.18,73.8,10.6,0.09433962264150944,1.7,6.409214092140922,0.0009544027999999999
517.11,475.46,11149.0,8.9696e-05,22.551,26.816,84.55,40.387,65.089,461.73,0.066323,43.881,0.063494,supercritical,CO2,C124389,carbon-dioxide,304.18,73.8,10.6,0.09433962264150944,1.7,6.442547425474254,0.0009507776
517.11,477.92,11191.0,8.9358e-05,22.535,26.805,84.487,40.394,65.106,462.88,0.065599,44.027,0.063663,supercritical,CO2,C124389,carbon-dioxide,304.18,73.8,10.6,0.09433962264150944,1.7,6.475880758807588,0.0009471947999999999
517.11,480.38,11233.0,8.9025e-05,22.518,26.795,84.425,40.401,65.122,464.03,0.064881,44.173,0.063831,supercritical,CO2,C124389,carbon-dioxide,304.18,73.8,10.6,0.09433962264150944,1.7,6.509214092140922,0.0009436649999999999
517.11,482.83,11275.0,8.8695e-05,22.502,26.784,84.363,40.407,65.138,465.19,0.064169,44.318,0.063998,supercritical,CO2,C124389,carbon-dioxide,304.18,73.8,10.6,0.09433962264150944,1.7,6.542411924119241,0.000940167
517.11,485.29,11316.0,8.837e-05,22.486,26.774,84.301,40.414,65.153,466.34,0.063464,44.464,0.064166,supercritical,CO2,C124389,carbon-dioxide,304.18,73.8,10.6,0.09433962264150944,1.7,6.575745257452575,0.0009367219999999999
517.11,487.75,11357.0,8.8049e-05,22.47,26.764,84.239,40.421,65.167,467.5,0.062765,44.61,0.064332,supercritical,CO2,C124389,carbon-dioxide,304.18,73.8,10.6,0.09433962264150944,1.7,6.609078590785908,0.0009333193999999999
517.11,490.21,11398.0,8.7731e-05,22.454,26.754,84.178,40.428,65.181,468.66,0.062071,44.756,0.064499,supercritical,CO2,C124389,carbon-dioxide,304.18,73.8,10.6,0.09433962264150944,1.7,6.642411924119241,0.0009299486
517.11,492.67,11439.0,8.7417e-05,22.437,26.744,84.117,40.434,65.195,469.82,0.061384,44.901,0.064665,supercritical,CO2,C124389,carbon-dioxide,304.18,73.8,10.6,0.09433962264150944,1.7,6.675745257452575,0.0009266201999999998
517.11,495.13,11480.0,8.7107e-05,22.422,26.734,84.057,40.441,65.208,470.98,0.060702,45.047,0.064831,supercritical,CO2,C124389,carbon-dioxide,304.18,73.8,10.6,0.09433962264150944,1.7,6.709078590785908,0.0009233342
517.11,497.58,11521.0,8.6801e-05,22.406,26.725,83.997,40.448,65.22,472.14,0.060026,45.193,0.064996,supercritical,CO2,C124389,carbon-dioxide,304.18,73.8,10.6,0.09433962264150944,1.7,6.742276422764228,0.0009200905999999999
517.11,500.04,11561.0,8.6499e-05,22.39,26.715,83.937,40.454,65.232,473.3,0.059357,45.339,0.065161,supercritical,CO2,C124389,carbon-dioxide,304.18,73.8,10.6,0.09433962264150944,1.7,6.775609756097562,0.0009168894
517.11,502.5,11601.0,8.6199e-05,22.374,26.706,83.878,40.461,65.243,474.46,0.058693,45.484,0.065326,supercritical,CO2,C124389,carbon-dioxide,304.18,73.8,10.6,0.09433962264150944,1.7,6.808943089430895,0.0009137094
517.11,504.96,11641.0,8.5904e-05,22.359,26.696,83.819,40.467,65.254,475.62,0.058034,45.63,0.06549,supercritical,CO2,C124389,carbon-dioxide,304.18,73.8,10.6,0.09433962264150944,1.7,6.842276422764227,0.0009105823999999999
517.11,507.42,11681.0,8.5612e-05,22.343,26.687,83.76,40.474,65.264,476.78,0.057381,45.776,0.065653,supercritical,CO2,C124389,carbon-dioxide,304.18,73.8,10.6,0.09433962264150944,1.7,6.875609756097561,0.0009074872
517.11,509.88,11720.0,8.5323e-05,22.328,26.678,83.702,40.48,65.274,477.95,0.056734,45.921,0.065817,supercritical,CO2,C124389,carbon-dioxide,304.18,73.8,10.6,0.09433962264150944,1.7,6.9089430894308945,0.0009044237999999998
517.11,512.33,11759.0,8.5038e-05,22.312,26.669,83.644,40.486,65.283,479.11,0.056093,46.067,0.06598,supercritical,CO2,C124389,carbon-dioxide,304.18,73.8,10.6,0.09433962264150944,1.7,6.942140921409215,0.0009014027999999999
517.11,514.79,11799.0,8.4756e-05,22.297,26.66,83.586,40.493,65.292,480.27,0.055457,46.213,0.066142,supercritical,CO2,C124389,carbon-dioxide,304.18,73.8,10.6,0.09433962264150944,1.7,6.975474254742547,0.0008984135999999999
517.11,517.25,11838.0,8.4477e-05,22.282,26.651,83.529,40.499,65.3,481.44,0.054826,46.358,0.066305,supercritical,CO2,C124389,carbon-dioxide,304.18,73.8,10.6,0.09433962264150944,1.7,7.008807588075881,0.0008954562
517.11,519.71,11876.0,8.4201e-05,22.266,26.642,83.472,40.505,65.308,482.6,0.054201,46.504,0.066466,supercritical,CO2,C124389,carbon-dioxide,304.18,73.8,10.6,0.09433962264150944,1.7,7.0421409214092145,0.0008925306
517.11,522.17,11915.0,8.3928e-05,22.251,26.634,83.415,40.511,65.316,483.77,0.053582,46.649,0.066628,supercritical,CO2,C124389,carbon-dioxide,304.18,73.8,10.6,0.09433962264150944,1.7,7.075474254742547,0.0008896367999999999
517.11,524.63,11953.0,8.3659e-05,22.236,26.625,83.359,40.517,65.323,484.93,0.052968,46.794,0.066789,supercritical,CO2,C124389,carbon-dioxide,304.18,73.8,10.6,0.09433962264150944,1.7,7.108807588075881,0.0008867854
517.11,527.08,11992.0,8.3392e-05,22.221,26.617,83.303,40.524,65.33,486.1,0.052359,46.94,0.066949,supercritical,CO2,C124389,carbon-dioxide,304.18,73.8,10.6,0.09433962264150944,1.7,7.142005420054201,0.0008839552
517.11,529.54,12030.0,8.3129e-05,22.206,26.608,83.247,40.53,65.336,487.26,0.051755,47.085,0.067109,supercritical,CO2,C124389,carbon-dioxide,304.18,73.8,10.6,0.09433962264150944,1.7,7.175338753387534,0.0008811673999999999
517.11,532.0,12067.0,8.2868e-05,22.192,26.6,83.191,40.536,65.342,488.43,0.051157,47.23,0.067269,supercritical,CO2,C124389,carbon-dioxide,304.18,73.8,10.6,0.09433962264150944,1.7,7.208672086720868,0.0008784007999999998
517.11,534.46,12105.0,8.261e-05,22.177,26.592,83.136,40.542,65.348,489.59,0.050563,47.375,0.067429,supercritical,CO2,C124389,carbon-dioxide,304.18,73.8,10.6,0.09433962264150944,1.7,7.242005420054201,0.0008756659999999999
517.11,536.92,12142.0,8.2355e-05,22.162,26.584,83.082,40.548,65.353,490.76,0.049975,47.52,0.067588,supercritical,CO2,C124389,carbon-dioxide,304.18,73.8,10.6,0.09433962264150944,1.7,7.275338753387533,0.0008729629999999998
517.11,539.38,12180.0,8.2103e-05,22.147,26.576,83.027,40.554,65.358,491.93,0.049392,47.665,0.067746,supercritical,CO2,C124389,carbon-dioxide,304.18,73.8,10.6,0.09433962264150944,1.7,7.308672086720867,0.0008702917999999999
517.11,541.83,12217.0,8.1854e-05,22.133,26.568,82.973,40.56,65.362,493.09,0.048814,47.81,0.067905,supercritical,CO2,C124389,carbon-dioxide,304.18,73.8,10.6,0.09433962264150944,1.7,7.341869918699188,0.0008676524
517.11,544.29,12254.0,8.1607e-05,22.118,26.56,82.919,40.566,65.366,494.26,0.048241,47.955,0.068063,supercritical,CO2,C124389,carbon-dioxide,304.18,73.8,10.6,0.09433962264150944,1.7,7.37520325203252,0.0008650342
517.11,546.75,12291.0,8.1363e-05,22.104,26.552,82.865,40.571,65.37,495.42,0.047673,48.1,0.06822,supercritical,CO2,C124389,carbon-dioxide,304.18,73.8,10.6,0.09433962264150944,1.7,7.408536585365854,0.0008624478
517.11,549.21,12327.0,8.1122e-05,22.09,26.545,82.812,40.577,65.373,496.59,0.04711,48.245,0.068377,supercritical,CO2,C124389,carbon-dioxide,304.18,73.8,10.6,0.09433962264150944,1.7,7.4418699186991875,0.0008598932
517.11,551.67,12364.0,8.0883e-05,22.075,26.537,82.759,40.583,65.376,497.75,0.046552,48.39,0.068534,supercritical,CO2,C124389,carbon-dioxide,304.18,73.8,10.6,0.09433962264150944,1.7,7.47520325203252,0.0008573598
517.11,554.13,12400.0,8.0646e-05,22.061,26.53,82.706,40.589,65.379,498.92,0.045999,48.534,0.06869,supercritical,CO2,C124389,carbon-dioxide,304.18,73.8,10.6,0.09433962264150944,1.7,7.508536585365854,0.0008548475999999999
517.11,556.58,12436.0,8.0413e-05,22.047,26.523,82.653,40.595,65.381,500.08,0.04545,48.679,0.068846,supercritical,CO2,C124389,carbon-dioxide,304.18,73.8,10.6,0.09433962264150944,1.7,7.541734417344174,0.0008523778
517.11,559.04,12472.0,8.0181e-05,22.033,26.515,82.601,40.6,65.383,501.25,0.044906,48.823,0.069002,supercritical,CO2,C124389,carbon-dioxide,304.18,73.8,10.6,0.09433962264150944,1.7,7.575067750677507,0.0008499186
517.11,561.5,12507.0,7.9952e-05,22.019,26.508,82.549,40.606,65.385,502.41,0.044367,48.967,0.069157,supercritical,CO2,C124389,carbon-dioxide,304.18,73.8,10.6,0.09433962264150944,1.7,7.608401084010841,0.0008474911999999999
517.11,563.96,12543.0,7.9726e-05,22.005,26.501,82.498,40.612,65.387,503.57,0.043833,49.111,0.069312,supercritical,CO2,C124389,carbon-dioxide,304.18,73.8,10.6,0.09433962264150944,1.7,7.641734417344174,0.0008450956
517.11,566.42,12578.0,7.9501e-05,21.991,26.494,82.446,40.617,65.388,504.74,0.043303,49.256,0.069466,supercritical,CO2,C124389,carbon-dioxide,304.18,73.8,10.6,0.09433962264150944,1.7,7.675067750677506,0.0008427105999999999
517.11,568.88,12614.0,7.9279e-05,21.977,26.487,82.395,40.623,65.389,505.9,0.042778,49.4,0.06962,supercritical,CO2,C124389,carbon-dioxide,304.18,73.8,10.6,0.09433962264150944,1.7,7.70840108401084,0.0008403573999999999
517.11,571.33,12649.0,7.906e-05,21.963,26.48,82.344,40.629,65.39,507.06,0.042257,49.543,0.069774,supercritical,CO2,C124389,carbon-dioxide,304.18,73.8,10.6,0.09433962264150944,1.7,7.741598915989161,0.000838036
517.11,573.79,12684.0,7.8842e-05,21.95,26.474,82.294,40.634,65.39,508.22,0.041741,49.687,0.069927,supercritical,CO2,C124389,carbon-dioxide,304.18,73.8,10.6,0.09433962264150944,1.7,7.774932249322493,0.0008357251999999999
517.11,576.25,12718.0,7.8627e-05,21.936,26.467,82.243,40.64,65.39,509.39,0.04123,49.831,0.07008,supercritical,CO2,C124389,carbon-dioxide,304.18,73.8,10.6,0.09433962264150944,1.7,7.808265582655827,0.0008334462
517.11,578.71,12753.0,7.8414e-05,21.922,26.46,82.193,40.645,65.39,510.55,0.040722,49.975,0.070233,supercritical,CO2,C124389,carbon-dioxide,304.18,73.8,10.6,0.09433962264150944,1.7,7.84159891598916,0.0008311883999999999
517.11,581.17,12787.0,7.8203e-05,21.909,26.454,82.144,40.651,65.39,511.71,0.04022,50.118,0.070385,supercritical,CO2,C124389,carbon-dioxide,304.18,73.8,10.6,0.09433962264150944,1.7,7.874932249322493,0.0008289517999999999
517.11,583.63,12821.0,7.7994e-05,21.895,26.447,82.094,40.656,65.389,512.87,0.039721,50.261,0.070537,supercritical,CO2,C124389,carbon-dioxide,304.18,73.8,10.6,0.09433962264150944,1.7,7.908265582655827,0.0008267363999999999
517.11,586.08,12856.0,7.7787e-05,21.882,26.441,82.045,40.662,65.388,514.03,0.039227,50.405,0.070689,supercritical,CO2,C124389,carbon-dioxide,304.18,73.8,10.6,0.09433962264150944,1.7,7.941463414634147,0.0008245422
517.11,588.54,12889.0,7.7583e-05,21.869,26.435,81.996,40.667,65.387,515.18,0.038737,50.548,0.07084,supercritical,CO2,C124389,carbon-dioxide,304.18,73.8,10.6,0.09433962264150944,1.7,7.9747967479674795,0.0008223798
517.11,591.0,12923.0,7.738e-05,21.855,26.429,81.947,40.673,65.386,516.34,0.038252,50.691,0.070991,supercritical,CO2,C124389,carbon-dioxide,304.18,73.8,10.6,0.09433962264150944,1.7,8.008130081300813,0.0008202279999999999
517.11,593.46,12957.0,7.7179e-05,21.842,26.422,81.898,40.678,65.385,517.5,0.03777,50.834,0.071141,supercritical,CO2,C124389,carbon-dioxide,304.18,73.8,10.6,0.09433962264150944,1.7,8.041463414634148,0.0008180974
517.11,595.92,12990.0,7.6981e-05,21.829,26.416,81.85,40.684,65.383,518.66,0.037293,50.977,0.071291,supercritical,CO2,C124389,carbon-dioxide,304.18,73.8,10.6,0.09433962264150944,1.7,8.07479674796748,0.0008159986
517.11,598.38,13024.0,7.6784e-05,21.816,26.41,81.802,40.689,65.381,519.81,0.03682,51.119,0.071441,supercritical,CO2,C124389,carbon-dioxide,304.18,73.8,10.6,0.09433962264150944,1.7,8.108130081300814,0.0008139104
517.11,600.83,13057.0,7.6589e-05,21.803,26.405,81.754,40.694,65.379,520.97,0.036351,51.262,0.07159,supercritical,CO2,C124389,carbon-dioxide,304.18,73.8,10.6,0.09433962264150944,1.7,8.141327913279135,0.0008118433999999998
517.11,603.29,13090.0,7.6396e-05,21.79,26.399,81.706,40.7,65.377,522.12,0.035885,51.405,0.071739,supercritical,CO2,C124389,carbon-dioxide,304.18,73.8,10.6,0.09433962264150944,1.7,8.174661246612466,0.0008097976
517.11,605.75,13123.0,7.6205e-05,21.777,26.393,81.659,40.705,65.374,523.27,0.035424,51.547,0.071888,supercritical,CO2,C124389,carbon-dioxide,304.18,73.8,10.6,0.09433962264150944,1.7,8.2079945799458,0.000807773
517.11,608.21,13155.0,7.6015e-05,21.764,26.387,81.612,40.71,65.372,524.43,0.034967,51.689,0.072036,supercritical,CO2,C124389,carbon-dioxide,304.18,73.8,10.6,0.09433962264150944,1.7,8.241327913279134,0.0008057589999999999
517.11,610.67,13188.0,7.5828e-05,21.751,26.382,81.565,40.716,65.369,525.58,0.034514,51.831,0.072184,supercritical,CO2,C124389,carbon-dioxide,304.18,73.8,10.6,0.09433962264150944,1.7,8.274661246612466,0.0008037768
517.11,613.13,13220.0,7.5642e-05,21.738,26.376,81.518,40.721,65.366,526.73,0.034065,51.973,0.072332,supercritical,CO2,C124389,carbon-dioxide,304.18,73.8,10.6,0.09433962264150944,1.7,8.3079945799458,0.0008018052
517.11,615.58,13252.0,7.5458e-05,21.726,26.371,81.472,40.726,65.363,527.88,0.033619,52.115,0.072479,supercritical,CO2,C124389,carbon-dioxide,304.18,73.8,10.6,0.09433962264150944,1.7,8.341192411924121,0.0007998547999999999
517.11,618.04,13285.0,7.5276e-05,21.713,26.365,81.426,40.731,65.359,529.03,0.033178,52.257,0.072626,supercritical,CO2,C124389,carbon-dioxide,304.18,73.8,10.6,0.09433962264150944,1.7,8.374525745257452,0.0007979256
517.11,620.5,13316.0,7.5095e-05,21.701,26.36,81.38,40.737,65.356,530.18,0.03274,52.398,0.072773,supercritical,CO2,C124389,carbon-dioxide,304.18,73.8,10.6,0.09433962264150944,1.7,8.407859078590786,0.0007960069999999999
517.11,622.96,13348.0,7.4916e-05,21.688,26.355,81.334,40.742,65.352,531.32,0.032306,52.54,0.072919,supercritical,CO2,C124389,carbon-dioxide,304.18,73.8,10.6,0.09433962264150944,1.7,8.44119241192412,0.0007941096
517.11,625.42,13380.0,7.4739e-05,21.675,26.35,81.289,40.747,65.349,532.47,0.031875,52.681,0.073065,supercritical,CO2,C124389,carbon-dioxide,304.18,73.8,10.6,0.09433962264150944,1.7,8.474525745257452,0.0007922334
517.11,627.88,13411.0,7.4563e-05,21.663,26.345,81.243,40.752,65.345,533.61,0.031448,52.822,0.07321,supercritical,CO2,C124389,carbon-dioxide,304.18,73.8,10.6,0.09433962264150944,1.7,8.507859078590787,0.0007903677999999999
517.11,630.33,13443.0,7.4389e-05,21.651,26.34,81.198,40.757,65.341,534.76,0.031025,52.964,0.073356,supercritical,CO2,C124389,carbon-dioxide,304.18,73.8,10.6,0.09433962264150944,1.7,8.541056910569107,0.0007885233999999999
517.11,632.79,13474.0,7.4216e-05,21.638,26.335,81.153,40.763,65.336,535.9,0.030606,53.104,0.073501,supercritical,CO2,C124389,carbon-dioxide,304.18,73.8,10.6,0.09433962264150944,1.7,8.574390243902439,0.0007866895999999999
517.11,635.25,13505.0,7.4046e-05,21.626,26.33,81.108,40.768,65.332,537.04,0.03019,53.245,0.073645,supercritical,CO2,C124389,carbon-dioxide,304.18,73.8,10.6,0.09433962264150944,1.7,8.607723577235772,0.0007848875999999999
517.11,637.71,13536.0,7.3876e-05,21.614,26.325,81.064,40.773,65.327,538.19,0.029777,53.386,0.073789,supercritical,CO2,C124389,carbon-dioxide,304.18,73.8,10.6,0.09433962264150944,1.7,8.641056910569107,0.0007830855999999999
517.11,640.17,13567.0,7.3708e-05,21.602,26.32,81.02,40.778,65.323,539.33,0.029368,53.527,0.073933,supercritical,CO2,C124389,carbon-dioxide,304.18,73.8,10.6,0.09433962264150944,1.7,8.674390243902439,0.0007813048
517.11,642.63,13598.0,7.3542e-05,21.59,26.316,80.976,40.783,65.318,540.47,0.028962,53.667,0.074077,supercritical,CO2,C124389,carbon-dioxide,304.18,73.8,10.6,0.09433962264150944,1.7,8.707723577235774,0.0007795451999999999
517.11,645.08,13628.0,7.3377e-05,21.578,26.311,80.932,40.788,65.313,541.6,0.02856,53.807,0.07422,supercritical,CO2,C124389,carbon-dioxide,304.18,73.8,10.6,0.09433962264150944,1.7,8.740921409214094,0.0007777961999999999
517.11,647.54,13659.0,7.3214e-05,21.566,26.306,80.888,40.793,65.308,542.74,0.028161,53.947,0.074363,supercritical,CO2,C124389,carbon-dioxide,304.18,73.8,10.6,0.09433962264150944,1.7,8.774254742547425,0.0007760683999999999
517.11,650.0,13689.0,7.3052e-05,21.554,26.302,80.845,40.798,65.303,543.88,0.027766,54.087,0.074506,supercritical,CO2,C124389,carbon-dioxide,304.18,73.8,10.6,0.09433962264150944,1.7,8.807588075880759,0.0007743512
517.11,652.46,13719.0,7.2891e-05,21.542,26.298,80.802,40.803,65.298,545.01,0.027374,54.227,0.074648,supercritical,CO2,C124389,carbon-dioxide,304.18,73.8,10.6,0.09433962264150944,1.7,8.840921409214094,0.0007726445999999999
517.11,654.92,13749.0,7.2732e-05,21.53,26.293,80.758,40.808,65.293,546.15,0.026985,54.367,0.07479,supercritical,CO2,C124389,carbon-dioxide,304.18,73.8,10.6,0.09433962264150944,1.7,8.874254742547425,0.0007709591999999998
517.11,657.38,13779.0,7.2574e-05,21.518,26.289,80.716,40.813,65.287,547.28,0.026599,54.507,0.074932,supercritical,CO2,C124389,carbon-dioxide,304.18,73.8,10.6,0.09433962264150944,1.7,8.90758807588076,0.0007692844
517.11,659.83,13809.0,7.2417e-05,21.506,26.285,80.673,40.818,65.282,548.41,0.026217,54.646,0.075074,supercritical,CO2,C124389,carbon-dioxide,304.18,73.8,10.6,0.09433962264150944,1.7,8.94078590785908,0.0007676201999999999
517.11,662.29,13838.0,7.2262e-05,21.495,26.28,80.63,40.823,65.276,549.54,0.025837,54.785,0.075215,supercritical,CO2,C124389,carbon-dioxide,304.18,73.8,10.6,0.09433962264150944,1.7,8.974119241192412,0.0007659771999999999
517.11,664.75,13868.0,7.2109e-05,21.483,26.276,80.588,40.828,65.271,550.67,0.025461,54.925,0.075356,supercritical,CO2,C124389,carbon-dioxide,304.18,73.8,10.6,0.09433962264150944,1.7,9.007452574525745,0.0007643553999999999
517.11,667.21,13897.0,7.1956e-05,21.471,26.272,80.546,40.833,65.265,551.8,0.025088,55.064,0.075496,supercritical,CO2,C124389,carbon-dioxide,304.18,73.8,10.6,0.09433962264150944,1.7,9.04078590785908,0.0007627335999999999
517.11,669.67,13927.0,7.1805e-05,21.46,26.268,80.504,40.838,65.259,552.93,0.024718,55.202,0.075636,supercritical,CO2,C124389,carbon-dioxide,304.18,73.8,10.6,0.09433962264150944,1.7,9.074119241192411,0.0007611329999999999
517.11,672.13,13956.0,7.1655e-05,21.448,26.264,80.462,40.843,65.253,554.05,0.024351,55.341,0.075776,supercritical,CO2,C124389,carbon-dioxide,304.18,73.8,10.6,0.09433962264150944,1.7,9.107452574525746,0.000759543