Temperature (K),Pressure (bar),Density (mol/m3),Volume (m3/mol),Internal Energy (kJ/mol),Enthalpy (kJ/mol),Entropy (J/mol*K),Cv (J/mol*K),Cp (J/mol*K),Sound Spd. (m/s),Joule-Thomson (K/bar),Viscosity (uPa*s),Therm. Cond. (W/m*K),Phase,substance,substance_id,substance_name,Tc,Pc,rhoc,Vmc,Tr,Pr,Vmr
1035.2,2112.0,25999.0,3.8463e-05,51.565,59.688,96.445,43.479,71.845,1070.1,0.028572,66.803,0.39949,supercritical,H2O,C7732185,water,647.0,220.64,17.9,0.0558659217877095,1.6,9.572153734590284,0.0006884877
1035.2,2119.3,26058.0,3.8376e-05,51.54,59.673,96.403,43.488,71.829,1071.9,0.028319,66.899,0.40038,supercritical,H2O,C7732185,water,647.0,220.64,17.9,0.0558659217877095,1.6,9.605239303843366,0.0006869303999999999
1035.2,2126.7,26116.0,3.829e-05,51.515,59.658,96.362,43.497,71.813,1073.8,0.028067,66.995,0.40127,supercritical,H2O,C7732185,water,647.0,220.64,17.9,0.0558659217877095,1.6,9.638778100072516,0.0006853909999999999
1035.2,2134.0,26175.0,3.8205e-05,51.49,59.643,96.32,43.507,71.797,1075.6,0.027818,67.091,0.40216,supercritical,H2O,C7732185,water,647.0,220.64,17.9,0.0558659217877095,1.6,9.6718636693256,0.0006838694999999999
1035.2,2141.4,26233.0,3.812e-05,51.466,59.629,96.279,43.516,71.78,1077.4,0.027571,67.187,0.40304,supercritical,H2O,C7732185,water,647.0,220.64,17.9,0.0558659217877095,1.6,9.705402465554752,0.0006823479999999999
1035.2,2148.7,26290.0,3.8037e-05,51.441,59.614,96.238,43.525,71.764,1079.3,0.027326,67.283,0.40393,supercritical,H2O,C7732185,water,647.0,220.64,17.9,0.0558659217877095,1.6,9.738488034807832,0.0006808623
1035.2,2156.1,26348.0,3.7953e-05,51.417,59.6,96.197,43.534,71.747,1081.1,0.027083,67.378,0.40481,supercritical,H2O,C7732185,water,647.0,220.64,17.9,0.0558659217877095,1.6,9.772026831036984,0.0006793586999999999
1035.2,2163.4,26406.0,3.7871e-05,51.393,59.586,96.157,43.544,71.731,1082.9,0.026841,67.474,0.40569,supercritical,H2O,C7732185,water,647.0,220.64,17.9,0.0558659217877095,1.6,9.805112400290067,0.0006778908999999999
1035.2,2170.8,26463.0,3.7789e-05,51.369,59.572,96.116,43.553,71.714,1084.7,0.026602,67.569,0.40657,supercritical,H2O,C7732185,water,647.0,220.64,17.9,0.0558659217877095,1.6,9.838651196519217,0.0006764230999999999
1035.2,2178.1,26520.0,3.7708e-05,51.345,59.558,96.076,43.562,71.697,1086.6,0.026365,67.664,0.40745,supercritical,H2O,C7732185,water,647.0,220.64,17.9,0.0558659217877095,1.6,9.8717367657723,0.0006749731999999999
1035.2,2185.5,26576.0,3.7627e-05,51.321,59.544,96.036,43.571,71.681,1088.4,0.02613,67.759,0.40832,supercritical,H2O,C7732185,water,647.0,220.64,17.9,0.0558659217877095,1.6,9.905275562001451,0.0006735232999999999
1035.2,2192.8,26633.0,3.7547e-05,51.297,59.53,95.996,43.58,71.664,1090.2,0.025897,67.854,0.40919,supercritical,H2O,C7732185,water,647.0,220.64,17.9,0.0558659217877095,1.6,9.938361131254533,0.0006720912999999999
1035.2,2200.2,26689.0,3.7468e-05,51.273,59.517,95.956,43.589,71.647,1092.0,0.025665,67.949,0.41006,supercritical,H2O,C7732185,water,647.0,220.64,17.9,0.0558659217877095,1.6,9.971899927483683,0.0006706772
1035.2,2207.5,26745.0,3.739e-05,51.249,59.503,95.917,43.598,71.63,1093.8,0.025436,68.043,0.41093,supercritical,H2O,C7732185,water,647.0,220.64,17.9,0.0558659217877095,1.6,10.004985496736767,0.000669281
1035.2,2214.8,26801.0,3.7312e-05,51.226,59.49,95.877,43.606,71.613,1095.6,0.025208,68.138,0.4118,supercritical,H2O,C7732185,water,647.0,220.64,17.9,0.0558659217877095,1.6,10.038071065989849,0.0006678847999999999
1035.2,2222.2,26857.0,3.7234e-05,51.203,59.477,95.838,43.615,71.596,1097.4,0.024982,68.232,0.41267,supercritical,H2O,C7732185,water,647.0,220.64,17.9,0.0558659217877095,1.6,10.071609862218999,0.0006664886
1035.2,2229.5,26913.0,3.7157e-05,51.179,59.464,95.799,43.624,71.579,1099.2,0.024758,68.326,0.41353,supercritical,H2O,C7732185,water,647.0,220.64,17.9,0.0558659217877095,1.6,10.104695431472082,0.0006651102999999999
1035.2,2236.9,26968.0,3.7081e-05,51.156,59.451,95.76,43.633,71.561,1101.0,0.024536,68.42,0.41439,supercritical,H2O,C7732185,water,647.0,220.64,17.9,0.0558659217877095,1.6,10.138234227701235,0.0006637498999999999
1035.2,2244.2,27023.0,3.7006e-05,51.133,59.438,95.721,43.642,71.544,1102.8,0.024315,68.514,0.41525,supercritical,H2O,C7732185,water,647.0,220.64,17.9,0.0558659217877095,1.6,10.171319796954315,0.0006624073999999999
1035.2,2251.6,27078.0,3.6931e-05,51.11,59.425,95.683,43.65,71.527,1104.6,0.024097,68.608,0.41611,supercritical,H2O,C7732185,water,647.0,220.64,17.9,0.0558659217877095,1.6,10.204858593183467,0.0006610649
1035.2,2258.9,27132.0,3.6856e-05,51.087,59.412,95.645,43.659,71.51,1106.4,0.02388,68.702,0.41697,supercritical,H2O,C7732185,water,647.0,220.64,17.9,0.0558659217877095,1.6,10.23794416243655,0.0006597224
1035.2,2266.3,27187.0,3.6782e-05,51.064,59.4,95.606,43.668,71.492,1108.2,0.023664,68.795,0.41783,supercritical,H2O,C7732185,water,647.0,220.64,17.9,0.0558659217877095,1.6,10.2714829586657,0.0006583978
1035.2,2273.6,27241.0,3.6709e-05,51.041,59.388,95.568,43.676,71.475,1110.0,0.023451,68.889,0.41868,supercritical,H2O,C7732185,water,647.0,220.64,17.9,0.0558659217877095,1.6,10.304568527918782,0.0006570910999999999
1035.2,2281.0,27295.0,3.6636e-05,51.019,59.375,95.53,43.685,71.457,1111.8,0.023239,68.982,0.41953,supercritical,H2O,C7732185,water,647.0,220.64,17.9,0.0558659217877095,1.6,10.338107324147934,0.0006557844
1035.2,2288.3,27349.0,3.6564e-05,50.996,59.363,95.493,43.693,71.44,1113.5,0.023029,69.075,0.42038,supercritical,H2O,C7732185,water,647.0,220.64,17.9,0.0558659217877095,1.6,10.371192893401016,0.0006544955999999999
1035.2,2295.7,27403.0,3.6493e-05,50.974,59.351,95.455,43.702,71.422,1115.3,0.02282,69.168,0.42123,supercritical,H2O,C7732185,water,647.0,220.64,17.9,0.0558659217877095,1.6,10.404731689630166,0.0006532246999999999
1035.2,2303.0,27456.0,3.6421e-05,50.951,59.339,95.418,43.71,71.405,1117.1,0.022613,69.261,0.42208,supercritical,H2O,C7732185,water,647.0,220.64,17.9,0.0558659217877095,1.6,10.43781725888325,0.0006519359
1035.2,2310.4,27510.0,3.6351e-05,50.929,59.327,95.381,43.719,71.387,1118.9,0.022408,69.354,0.42293,supercritical,H2O,C7732185,water,647.0,220.64,17.9,0.0558659217877095,1.6,10.471356055112402,0.0006506829
1035.2,2317.7,27563.0,3.6281e-05,50.907,59.316,95.343,43.727,71.369,1120.6,0.022204,69.447,0.42377,supercritical,H2O,C7732185,water,647.0,220.64,17.9,0.0558659217877095,1.6,10.504441624365482,0.0006494299
1035.2,2325.1,27616.0,3.6211e-05,50.885,59.304,95.307,43.735,71.352,1122.4,0.022002,69.54,0.42461,supercritical,H2O,C7732185,water,647.0,220.64,17.9,0.0558659217877095,1.6,10.537980420594634,0.0006481769
1035.2,2332.4,27668.0,3.6142e-05,50.863,59.293,95.27,43.744,71.334,1124.2,0.021802,69.632,0.42545,supercritical,H2O,C7732185,water,647.0,220.64,17.9,0.0558659217877095,1.6,10.571065989847718,0.0006469418
1035.2,2339.8,27721.0,3.6074e-05,50.841,59.281,95.233,43.752,71.316,1125.9,0.021603,69.724,0.42629,supercritical,H2O,C7732185,water,647.0,220.64,17.9,0.0558659217877095,1.6,10.60460478607687,0.0006457246
1035.2,2347.1,27773.0,3.6006e-05,50.819,59.27,95.197,43.76,71.299,1127.7,0.021405,69.817,0.42713,supercritical,H2O,C7732185,water,647.0,220.64,17.9,0.0558659217877095,1.6,10.63769035532995,0.0006445073999999999
1035.2,2354.5,27825.0,3.5938e-05,50.797,59.259,95.16,43.769,71.281,1129.5,0.021209,69.909,0.42797,supercritical,H2O,C7732185,water,647.0,220.64,17.9,0.0558659217877095,1.6,10.671229151559102,0.0006432902
1035.2,2361.8,27877.0,3.5871e-05,50.776,59.248,95.124,43.777,71.263,1131.2,0.021015,70.001,0.4288,supercritical,H2O,C7732185,water,647.0,220.64,17.9,0.0558659217877095,1.6,10.704314720812183,0.0006420909
1035.2,2369.2,27929.0,3.5805e-05,50.754,59.237,95.088,43.785,71.245,1133.0,0.020822,70.092,0.42963,supercritical,H2O,C7732185,water,647.0,220.64,17.9,0.0558659217877095,1.6,10.737853517041334,0.0006409095
1035.2,2376.5,27981.0,3.5739e-05,50.733,59.226,95.052,43.793,71.227,1134.7,0.02063,70.184,0.43047,supercritical,H2O,C7732185,water,647.0,220.64,17.9,0.0558659217877095,1.6,10.770939086294417,0.0006397280999999999
1035.2,2383.9,28032.0,3.5673e-05,50.711,59.215,95.017,43.801,71.209,1136.4,0.02044,70.276,0.4313,supercritical,H2O,C7732185,water,647.0,220.64,17.9,0.0558659217877095,1.6,10.80447788252357,0.0006385467
1035.2,2391.2,28084.0,3.5608e-05,50.69,59.205,94.981,43.809,71.192,1138.2,0.020251,70.367,0.43213,supercritical,H2O,C7732185,water,647.0,220.64,17.9,0.0558659217877095,1.6,10.83756345177665,0.0006373832
1035.2,2398.6,28135.0,3.5543e-05,50.669,59.194,94.946,43.817,71.174,1139.9,0.020064,70.459,0.43295,supercritical,H2O,C7732185,water,647.0,220.64,17.9,0.0558659217877095,1.6,10.871102248005801,0.0006362197
1035.2,2405.9,28186.0,3.5479e-05,50.648,59.184,94.91,43.825,71.156,1141.7,0.019878,70.55,0.43378,supercritical,H2O,C7732185,water,647.0,220.64,17.9,0.0558659217877095,1.6,10.904187817258885,0.0006350740999999999
1035.2,2413.3,28236.0,3.5415e-05,50.627,59.173,94.875,43.834,71.138,1143.4,0.019694,70.641,0.4346,supercritical,H2O,C7732185,water,647.0,220.64,17.9,0.0558659217877095,1.6,10.937726613488037,0.0006339284999999999
1035.2,2420.6,28287.0,3.5352e-05,50.606,59.163,94.84,43.842,71.12,1145.1,0.019511,70.732,0.43543,supercritical,H2O,C7732185,water,647.0,220.64,17.9,0.0558659217877095,1.6,10.970812182741117,0.0006328008
1035.2,2428.0,28337.0,3.5289e-05,50.585,59.153,94.805,43.849,71.102,1146.9,0.019329,70.823,0.43625,supercritical,H2O,C7732185,water,647.0,220.64,17.9,0.0558659217877095,1.6,11.004350978970269,0.0006316731
1035.2,2435.3,28387.0,3.5227e-05,50.564,59.143,94.77,43.857,71.084,1148.6,0.019149,70.914,0.43707,supercritical,H2O,C7732185,water,647.0,220.64,17.9,0.0558659217877095,1.6,11.037436548223353,0.0006305633
1035.2,2442.6,28437.0,3.5165e-05,50.543,59.133,94.736,43.865,71.066,1150.3,0.018969,71.004,0.43789,supercritical,H2O,C7732185,water,647.0,220.64,17.9,0.0558659217877095,1.6,11.070522117476433,0.0006294534999999999
1035.2,2450.0,28487.0,3.5103e-05,50.523,59.123,94.701,43.873,71.048,1152.0,0.018792,71.095,0.4387,supercritical,H2O,C7732185,water,647.0,220.64,17.9,0.0558659217877095,1.6,11.104060913705585,0.0006283437
1035.2,2457.3,28537.0,3.5042e-05,50.502,59.113,94.667,43.881,71.03,1153.7,0.018615,71.185,0.43952,supercritical,H2O,C7732185,water,647.0,220.64,17.9,0.0558659217877095,1.6,11.137146482958666,0.0006272518
1035.2,2464.7,28586.0,3.4982e-05,50.482,59.104,94.633,43.889,71.012,1155.5,0.01844,71.275,0.44034,supercritical,H2O,C7732185,water,647.0,220.64,17.9,0.0558659217877095,1.6,11.170685279187817,0.0006261778
1035.2,2472.0,28636.0,3.4921e-05,50.461,59.094,94.599,43.897,70.994,1157.2,0.018266,71.366,0.44115,supercritical,H2O,C7732185,water,647.0,220.64,17.9,0.0558659217877095,1.6,11.2037708484409,0.0006250858999999999
1035.2,2479.4,28685.0,3.4861e-05,50.441,59.085,94.565,43.905,70.976,1158.9,0.018093,71.456,0.44196,supercritical,H2O,C7732185,water,647.0,220.64,17.9,0.0558659217877095,1.6,11.237309644670052,0.0006240118999999999
1035.2,2486.7,28734.0,3.4802e-05,50.421,59.075,94.531,43.912,70.957,1160.6,0.017922,71.546,0.44277,supercritical,H2O,C7732185,water,647.0,220.64,17.9,0.0558659217877095,1.6,11.270395213923132,0.0006229558000000001
1035.2,2494.1,28783.0,3.4743e-05,50.401,59.066,94.497,43.92,70.939,1162.3,0.017752,71.635,0.44358,supercritical,H2O,C7732185,water,647.0,220.64,17.9,0.0558659217877095,1.6,11.303934010152284,0.0006218997
1035.2,2501.4,28832.0,3.4684e-05,50.381,59.057,94.464,43.928,70.921,1164.0,0.017583,71.725,0.44439,supercritical,H2O,C7732185,water,647.0,220.64,17.9,0.0558659217877095,1.6,11.337019579405368,0.0006208436
1035.2,2508.8,28880.0,3.4626e-05,50.361,59.048,94.431,43.936,70.903,1165.7,0.017415,71.815,0.4452,supercritical,H2O,C7732185,water,647.0,220.64,17.9,0.0558659217877095,1.6,11.37055837563452,0.0006198053999999999
1035.2,2516.1,28928.0,3.4568e-05,50.341,59.038,94.397,43.943,70.885,1167.4,0.017248,71.904,0.446,supercritical,H2O,C7732185,water,647.0,220.64,17.9,0.0558659217877095,1.6,11.4036439448876,0.0006187672
1035.2,2523.5,28977.0,3.4511e-05,50.321,59.03,94.364,43.951,70.867,1169.1,0.017083,71.993,0.44681,supercritical,H2O,C7732185,water,647.0,220.64,17.9,0.0558659217877095,1.6,11.437182741116752,0.0006177468999999999
1035.2,2530.8,29025.0,3.4453e-05,50.301,59.021,94.331,43.959,70.849,1170.8,0.016919,72.083,0.44761,supercritical,H2O,C7732185,water,647.0,220.64,17.9,0.0558659217877095,1.6,11.470268310369836,0.0006167086999999999
1035.2,2538.2,29073.0,3.4397e-05,50.281,59.012,94.298,43.966,70.831,1172.5,0.016756,72.172,0.44841,supercritical,H2O,C7732185,water,647.0,220.64,17.9,0.0558659217877095,1.6,11.503807106598984,0.0006157063
1035.2,2545.5,29120.0,3.434e-05,50.262,59.003,94.265,43.974,70.813,1174.1,0.016594,72.261,0.44921,supercritical,H2O,C7732185,water,647.0,220.64,17.9,0.0558659217877095,1.6,11.536892675852068,0.0006146859999999999
1035.2,2552.9,29168.0,3.4284e-05,50.242,58.995,94.233,43.981,70.794,1175.8,0.016433,72.35,0.45001,supercritical,H2O,C7732185,water,647.0,220.64,17.9,0.0558659217877095,1.6,11.57043147208122,0.0006136836
1035.2,2560.2,29215.0,3.4229e-05,50.223,58.986,94.2,43.989,70.776,1177.5,0.016273,72.438,0.45081,supercritical,H2O,C7732185,water,647.0,220.64,17.9,0.0558659217877095,1.6,11.6035170413343,0.0006126991
1035.2,2567.6,29263.0,3.4173e-05,50.203,58.978,94.168,43.996,70.758,1179.2,0.016115,72.527,0.45161,supercritical,H2O,C7732185,water,647.0,220.64,17.9,0.0558659217877095,1.6,11.637055837563452,0.0006116966999999999
1035.2,2574.9,29310.0,3.4118e-05,50.184,58.969,94.135,44.004,70.74,1180.9,0.015957,72.616,0.4524,supercritical,H2O,C7732185,water,647.0,220.64,17.9,0.0558659217877095,1.6,11.670141406816535,0.0006107122
1035.2,2582.3,29357.0,3.4064e-05,50.165,58.961,94.103,44.011,70.722,1182.5,0.015801,72.704,0.4532,supercritical,H2O,C7732185,water,647.0,220.64,17.9,0.0558659217877095,1.6,11.703680203045687,0.0006097456
1035.2,2589.6,29403.0,3.401e-05,50.146,58.953,94.071,44.019,70.704,1184.2,0.015646,72.792,0.45399,supercritical,H2O,C7732185,water,647.0,220.64,17.9,0.0558659217877095,1.6,11.736765772298767,0.0006087789999999999
1035.2,2597.0,29450.0,3.3956e-05,50.127,58.945,94.039,44.026,70.686,1185.9,0.015491,72.881,0.45478,supercritical,H2O,C7732185,water,647.0,220.64,17.9,0.0558659217877095,1.6,11.77030456852792,0.0006078123999999999
1035.2,2604.3,29497.0,3.3902e-05,50.108,58.937,94.007,44.034,70.667,1187.5,0.015338,72.969,0.45557,supercritical,H2O,C7732185,water,647.0,220.64,17.9,0.0558659217877095,1.6,11.803390137781003,0.0006068458
1035.2,2611.7,29543.0,3.3849e-05,50.089,58.929,93.976,44.041,70.649,1189.2,0.015186,73.057,0.45636,supercritical,H2O,C7732185,water,647.0,220.64,17.9,0.0558659217877095,1.6,11.836928934010151,0.0006058971
1035.2,2619.0,29589.0,3.3796e-05,50.07,58.921,93.944,44.048,70.631,1190.8,0.015035,73.144,0.45715,supercritical,H2O,C7732185,water,647.0,220.64,17.9,0.0558659217877095,1.6,11.870014503263235,0.0006049483999999999
1035.2,2626.4,29635.0,3.3744e-05,50.051,58.913,93.913,44.056,70.613,1192.5,0.014885,73.232,0.45794,supercritical,H2O,C7732185,water,647.0,220.64,17.9,0.0558659217877095,1.6,11.903553299492387,0.0006040176
1035.2,2633.7,29681.0,3.3692e-05,50.032,58.906,93.881,44.063,70.595,1194.2,0.014736,73.32,0.45872,supercritical,H2O,C7732185,water,647.0,220.64,17.9,0.0558659217877095,1.6,11.936638868745467,0.0006030868
1035.2,2641.1,29727.0,3.364e-05,50.014,58.898,93.85,44.071,70.577,1195.8,0.014588,73.407,0.45951,supercritical,H2O,C7732185,water,647.0,220.64,17.9,0.0558659217877095,1.6,11.970177664974619,0.0006021560000000001
1035.2,2648.4,29772.0,3.3588e-05,49.995,58.891,93.819,44.078,70.558,1197.5,0.014441,73.495,0.46029,supercritical,H2O,C7732185,water,647.0,220.64,17.9,0.0558659217877095,1.6,12.003263234227703,0.0006012251999999999
1035.2,2655.7,29818.0,3.3537e-05,49.977,58.883,93.788,44.085,70.54,1199.1,0.014295,73.582,0.46108,supercritical,H2O,C7732185,water,647.0,220.64,17.9,0.0558659217877095,1.6,12.036348803480783,0.0006003123
1035.2,2663.1,29863.0,3.3486e-05,49.958,58.876,93.757,44.092,70.522,1200.7,0.014149,73.669,0.46186,supercritical,H2O,C7732185,water,647.0,220.64,17.9,0.0558659217877095,1.6,12.069887599709935,0.0005993993999999999
1035.2,2670.4,29908.0,3.3436e-05,49.94,58.868,93.726,44.1,70.504,1202.4,0.014005,73.756,0.46264,supercritical,H2O,C7732185,water,647.0,220.64,17.9,0.0558659217877095,1.6,12.102973168963018,0.0005985044000000001
1035.2,2677.8,29953.0,3.3385e-05,49.921,58.861,93.696,44.107,70.486,1204.0,0.013862,73.843,0.46342,supercritical,H2O,C7732185,water,647.0,220.64,17.9,0.0558659217877095,1.6,12.13651196519217,0.0005975914999999999
1035.2,2685.1,29998.0,3.3335e-05,49.903,58.854,93.665,44.114,70.468,1205.6,0.01372,73.93,0.4642,supercritical,H2O,C7732185,water,647.0,220.64,17.9,0.0558659217877095,1.6,12.16959753444525,0.0005966964999999999
1035.2,2692.5,30043.0,3.3286e-05,49.885,58.847,93.635,44.121,70.45,1207.3,0.013578,74.017,0.46498,supercritical,H2O,C7732185,water,647.0,220.64,17.9,0.0558659217877095,1.6,12.203136330674402,0.0005958194
1035.2,2699.8,30088.0,3.3236e-05,49.867,58.84,93.604,44.128,70.431,1208.9,0.013438,74.103,0.46575,supercritical,H2O,C7732185,water,647.0,220.64,17.9,0.0558659217877095,1.6,12.236221899927486,0.0005949244
1035.2,2707.2,30132.0,3.3187e-05,49.849,58.833,93.574,44.136,70.413,1210.5,0.013298,74.19,0.46653,supercritical,H2O,C7732185,water,647.0,220.64,17.9,0.0558659217877095,1.6,12.269760696156634,0.0005940473
1035.2,2714.5,30176.0,3.3138e-05,49.831,58.826,93.544,44.143,70.395,1212.2,0.01316,74.276,0.4673,supercritical,H2O,C7732185,water,647.0,220.64,17.9,0.0558659217877095,1.6,12.302846265409718,0.0005931701999999999
1035.2,2721.9,30221.0,3.309e-05,49.813,58.819,93.514,44.15,70.377,1213.8,0.013022,74.362,0.46808,supercritical,H2O,C7732185,water,647.0,220.64,17.9,0.0558659217877095,1.6,12.33638506163887,0.000592311
1035.2,2729.2,30265.0,3.3042e-05,49.795,58.813,93.484,44.157,70.359,1215.4,0.012885,74.448,0.46885,supercritical,H2O,C7732185,water,647.0,220.64,17.9,0.0558659217877095,1.6,12.36947063089195,0.0005914518
1035.2,2736.6,30309.0,3.2994e-05,49.777,58.806,93.454,44.164,70.341,1217.0,0.012749,74.534,0.46962,supercritical,H2O,C7732185,water,647.0,220.64,17.9,0.0558659217877095,1.6,12.403009427121102,0.0005905926
1035.2,2743.9,30352.0,3.2946e-05,49.759,58.8,93.424,44.171,70.323,1218.6,0.012614,74.62,0.47039,supercritical,H2O,C7732185,water,647.0,220.64,17.9,0.0558659217877095,1.6,12.436094996374186,0.0005897334
1035.2,2751.3,30396.0,3.2899e-05,49.742,58.793,93.395,44.178,70.305,1220.2,0.01248,74.706,0.47116,supercritical,H2O,C7732185,water,647.0,220.64,17.9,0.0558659217877095,1.6,12.469633792603338,0.0005888921
1035.2,2758.6,30440.0,3.2852e-05,49.724,58.787,93.365,44.185,70.287,1221.9,0.012347,74.792,0.47193,supercritical,H2O,C7732185,water,647.0,220.64,17.9,0.0558659217877095,1.6,12.502719361856418,0.0005880508000000001
1035.2,2766.0,30483.0,3.2805e-05,49.707,58.78,93.336,44.192,70.269,1223.5,0.012214,74.877,0.47269,supercritical,H2O,C7732185,water,647.0,220.64,17.9,0.0558659217877095,1.6,12.53625815808557,0.0005872095
1035.2,2773.3,30526.0,3.2759e-05,49.689,58.774,93.306,44.199,70.251,1225.1,0.012083,74.963,0.47346,supercritical,H2O,C7732185,water,647.0,220.64,17.9,0.0558659217877095,1.6,12.569343727338653,0.0005863861
1035.2,2780.7,30569.0,3.2712e-05,49.672,58.768,93.277,44.206,70.233,1226.7,0.011952,75.048,0.47423,supercritical,H2O,C7732185,water,647.0,220.64,17.9,0.0558659217877095,1.6,12.602882523567803,0.0005855448
1035.2,2788.0,30612.0,3.2666e-05,49.654,58.762,93.248,44.213,70.215,1228.3,0.011822,75.133,0.47499,supercritical,H2O,C7732185,water,647.0,220.64,17.9,0.0558659217877095,1.6,12.635968092820885,0.0005847214
1035.2,2795.4,30655.0,3.2621e-05,49.637,58.756,93.219,44.22,70.197,1229.9,0.011693,75.218,0.47575,supercritical,H2O,C7732185,water,647.0,220.64,17.9,0.0558659217877095,1.6,12.669506889050037,0.0005839158999999999