Temperature (K),Pressure (bar),Density (mol/m3),Volume (m3/mol),Internal Energy (kJ/mol),Enthalpy (kJ/mol),Entropy (J/mol*K),Cv (J/mol*K),Cp (J/mol*K),Sound Spd. (m/s),Joule-Thomson (K/bar),Viscosity (uPa*s),Therm. Cond. (W/m*K),Phase,substance,substance_id,substance_name,Tc,Pc,rhoc,Vmc,Tr,Pr,Vmr
262.79,521.07,20585.0,4.8579e-05,2.4483,4.9796,141.03,23.645,44.664,556.95,0.0027435,48.171,0.067706,supercritical,O2,C7782447,oxygen,154.58,50.43,13.6,0.07352941176470588,1.7,10.332540154669841,0.0006606743999999999
262.79,522.43,20611.0,4.8518e-05,2.4447,4.9794,141.0,23.649,44.65,557.76,0.0025105,48.248,0.067807,supercritical,O2,C7782447,oxygen,154.58,50.43,13.6,0.07352941176470588,1.7,10.359508229228632,0.0006598448
262.79,523.79,20637.0,4.8457e-05,2.4411,4.9793,140.97,23.652,44.636,558.56,0.0022789,48.326,0.067907,supercritical,O2,C7782447,oxygen,154.58,50.43,13.6,0.07352941176470588,1.7,10.386476303787427,0.0006590152
262.79,525.16,20662.0,4.8397e-05,2.4375,4.9792,140.95,23.655,44.622,559.36,0.0020487,48.403,0.068008,supercritical,O2,C7782447,oxygen,154.58,50.43,13.6,0.07352941176470588,1.7,10.413642673012095,0.0006581991999999999
262.79,526.52,20688.0,4.8337e-05,2.434,4.979,140.92,23.658,44.608,560.16,0.0018201,48.48,0.068109,supercritical,O2,C7782447,oxygen,154.58,50.43,13.6,0.07352941176470588,1.7,10.44061074757089,0.0006573832
262.79,527.89,20714.0,4.8277e-05,2.4304,4.9789,140.9,23.661,44.594,560.96,0.0015928,48.557,0.06821,supercritical,O2,C7782447,oxygen,154.58,50.43,13.6,0.07352941176470588,1.7,10.467777116795558,0.0006565672
262.79,529.25,20739.0,4.8218e-05,2.4269,4.9789,140.87,23.664,44.58,561.76,0.001367,48.634,0.06831,supercritical,O2,C7782447,oxygen,154.58,50.43,13.6,0.07352941176470588,1.7,10.494745191354353,0.0006557647999999999
262.79,530.62,20765.0,4.8159e-05,2.4234,4.9788,140.85,23.667,44.566,562.56,0.0011427,48.711,0.068411,supercritical,O2,C7782447,oxygen,154.58,50.43,13.6,0.07352941176470588,1.7,10.52191156057902,0.0006549624
262.79,531.99,20790.0,4.81e-05,2.4199,4.9787,140.82,23.67,44.553,563.35,0.0009197,48.788,0.068511,supercritical,O2,C7782447,oxygen,154.58,50.43,13.6,0.07352941176470588,1.7,10.549077929803689,0.00065416
262.79,533.35,20815.0,4.8042e-05,2.4164,4.9787,140.8,23.673,44.539,564.15,0.00069813,48.865,0.068612,supercritical,O2,C7782447,oxygen,154.58,50.43,13.6,0.07352941176470588,1.7,10.576046004362484,0.0006533712
262.79,534.72,20840.0,4.7984e-05,2.4129,4.9786,140.77,23.676,44.525,564.94,0.00047794,48.942,0.068712,supercritical,O2,C7782447,oxygen,154.58,50.43,13.6,0.07352941176470588,1.7,10.603212373587152,0.0006525824
262.79,536.08,20865.0,4.7926e-05,2.4094,4.9786,140.75,23.679,44.511,565.73,0.00025913,49.018,0.068812,supercritical,O2,C7782447,oxygen,154.58,50.43,13.6,0.07352941176470588,1.7,10.630180448145946,0.0006517936
262.79,537.45,20891.0,4.7869e-05,2.4059,4.9786,140.72,23.682,44.498,566.53,4.1679e-05,49.095,0.068912,supercritical,O2,C7782447,oxygen,154.58,50.43,13.6,0.07352941176470588,1.7,10.657346817370614,0.0006510184
262.79,538.81,20915.0,4.7812e-05,2.4025,4.9786,140.7,23.685,44.484,567.32,-0.00017442,49.172,0.069012,supercritical,O2,C7782447,oxygen,154.58,50.43,13.6,0.07352941176470588,1.7,10.684314891929406,0.0006502432
262.79,540.17,20940.0,4.7755e-05,2.399,4.9786,140.67,23.688,44.471,568.11,-0.00038918,49.248,0.069112,supercritical,O2,C7782447,oxygen,154.58,50.43,13.6,0.07352941176470588,1.7,10.7112829664882,0.0006494679999999999
262.79,541.54,20965.0,4.7698e-05,2.3956,4.9787,140.65,23.691,44.457,568.89,-0.00060261,49.325,0.069212,supercritical,O2,C7782447,oxygen,154.58,50.43,13.6,0.07352941176470588,1.7,10.738449335712868,0.0006486928
262.79,542.9,20990.0,4.7642e-05,2.3922,4.9787,140.62,23.694,44.444,569.68,-0.00081473,49.401,0.069312,supercritical,O2,C7782447,oxygen,154.58,50.43,13.6,0.07352941176470588,1.7,10.765417410271663,0.0006479312
262.79,544.27,21014.0,4.7586e-05,2.3888,4.9787,140.6,23.697,44.43,570.47,-0.0010255,49.478,0.069411,supercritical,O2,C7782447,oxygen,154.58,50.43,13.6,0.07352941176470588,1.7,10.792583779496331,0.0006471696
262.79,545.63,21039.0,4.7531e-05,2.3854,4.9788,140.57,23.7,44.417,571.25,-0.001235,49.554,0.069511,supercritical,O2,C7782447,oxygen,154.58,50.43,13.6,0.07352941176470588,1.7,10.819551854055126,0.0006464216
262.79,547.0,21063.0,4.7476e-05,2.382,4.9789,140.55,23.703,44.403,572.04,-0.0014433,49.631,0.069611,supercritical,O2,C7782447,oxygen,154.58,50.43,13.6,0.07352941176470588,1.7,10.846718223279794,0.0006456735999999999
262.79,548.37,21088.0,4.7421e-05,2.3786,4.979,140.52,23.706,44.39,572.82,-0.0016502,49.707,0.06971,supercritical,O2,C7782447,oxygen,154.58,50.43,13.6,0.07352941176470588,1.7,10.873884592504462,0.0006449256
262.79,549.73,21112.0,4.7366e-05,2.3752,4.9791,140.5,23.709,44.377,573.6,-0.0018559,49.783,0.069809,supercritical,O2,C7782447,oxygen,154.58,50.43,13.6,0.07352941176470588,1.7,10.900852667063257,0.0006441776
262.79,551.1,21136.0,4.7312e-05,2.3719,4.9792,140.48,23.712,44.363,574.39,-0.0020603,49.859,0.069909,supercritical,O2,C7782447,oxygen,154.58,50.43,13.6,0.07352941176470588,1.7,10.928019036287925,0.0006434431999999999
262.79,552.46,21160.0,4.7258e-05,2.3685,4.9793,140.45,23.715,44.35,575.17,-0.0022635,49.935,0.070008,supercritical,O2,C7782447,oxygen,154.58,50.43,13.6,0.07352941176470588,1.7,10.95498711084672,0.0006427088
262.79,553.83,21185.0,4.7204e-05,2.3652,4.9795,140.43,23.718,44.337,575.94,-0.0024655,50.011,0.070107,supercritical,O2,C7782447,oxygen,154.58,50.43,13.6,0.07352941176470588,1.7,10.982153480071387,0.0006419743999999999
262.79,555.19,21209.0,4.7151e-05,2.3619,4.9796,140.4,23.721,44.324,576.72,-0.0026662,50.087,0.070206,supercritical,O2,C7782447,oxygen,154.58,50.43,13.6,0.07352941176470588,1.7,11.009121554630182,0.0006412536
262.79,556.55,21232.0,4.7098e-05,2.3586,4.9798,140.38,23.724,44.311,577.5,-0.0028657,50.163,0.070305,supercritical,O2,C7782447,oxygen,154.58,50.43,13.6,0.07352941176470588,1.7,11.036089629188973,0.0006405328
262.79,557.92,21256.0,4.7045e-05,2.3553,4.98,140.36,23.727,44.298,578.28,-0.0030641,50.239,0.070404,supercritical,O2,C7782447,oxygen,154.58,50.43,13.6,0.07352941176470588,1.7,11.063255998413641,0.000639812
262.79,559.28,21280.0,4.6992e-05,2.352,4.9802,140.33,23.73,44.285,579.05,-0.0032612,50.315,0.070503,supercritical,O2,C7782447,oxygen,154.58,50.43,13.6,0.07352941176470588,1.7,11.090224072972436,0.0006390912
262.79,560.65,21304.0,4.694e-05,2.3487,4.9804,140.31,23.733,44.272,579.83,-0.0034571,50.391,0.070602,supercritical,O2,C7782447,oxygen,154.58,50.43,13.6,0.07352941176470588,1.7,11.117390442197104,0.000638384
262.79,562.01,21327.0,4.6888e-05,2.3454,4.9806,140.29,23.736,44.259,580.6,-0.0036519,50.467,0.0707,supercritical,O2,C7782447,oxygen,154.58,50.43,13.6,0.07352941176470588,1.7,11.144358516755899,0.0006376768
262.79,563.38,21351.0,4.6836e-05,2.3422,4.9808,140.26,23.739,44.246,581.37,-0.0038455,50.543,0.070799,supercritical,O2,C7782447,oxygen,154.58,50.43,13.6,0.07352941176470588,1.7,11.171524885980567,0.0006369695999999999
262.79,564.75,21374.0,4.6785e-05,2.3389,4.9811,140.24,23.742,44.233,582.14,-0.0040379,50.618,0.070898,supercritical,O2,C7782447,oxygen,154.58,50.43,13.6,0.07352941176470588,1.7,11.198691255205235,0.000636276
262.79,566.11,21398.0,4.6734e-05,2.3357,4.9813,140.22,23.745,44.22,582.91,-0.0042292,50.694,0.070996,supercritical,O2,C7782447,oxygen,154.58,50.43,13.6,0.07352941176470588,1.7,11.22565932976403,0.0006355823999999999
262.79,567.48,21421.0,4.6683e-05,2.3325,4.9816,140.19,23.748,44.207,583.68,-0.0044194,50.77,0.071094,supercritical,O2,C7782447,oxygen,154.58,50.43,13.6,0.07352941176470588,1.7,11.252825698988698,0.0006348888
262.79,568.84,21444.0,4.6632e-05,2.3292,4.9818,140.17,23.751,44.194,584.45,-0.0046084,50.845,0.071193,supercritical,O2,C7782447,oxygen,154.58,50.43,13.6,0.07352941176470588,1.7,11.279793773547492,0.0006341951999999999
262.79,570.21,21468.0,4.6582e-05,2.326,4.9821,140.15,23.754,44.182,585.22,-0.0047963,50.921,0.071291,supercritical,O2,C7782447,oxygen,154.58,50.43,13.6,0.07352941176470588,1.7,11.30696014277216,0.0006335152
262.79,571.57,21491.0,4.6531e-05,2.3228,4.9824,140.12,23.757,44.169,585.98,-0.0049831,50.996,0.071389,supercritical,O2,C7782447,oxygen,154.58,50.43,13.6,0.07352941176470588,1.7,11.333928217330955,0.0006328216
262.79,572.93,21514.0,4.6482e-05,2.3196,4.9827,140.1,23.76,44.156,586.75,-0.0051688,51.071,0.071487,supercritical,O2,C7782447,oxygen,154.58,50.43,13.6,0.07352941176470588,1.7,11.360896291889746,0.0006321552
262.79,574.3,21537.0,4.6432e-05,2.3165,4.9831,140.08,23.763,44.144,587.51,-0.0053534,51.147,0.071585,supercritical,O2,C7782447,oxygen,154.58,50.43,13.6,0.07352941176470588,1.7,11.388062661114414,0.0006314752
262.79,575.66,21560.0,4.6383e-05,2.3133,4.9834,140.05,23.766,44.131,588.28,-0.0055369,51.222,0.071683,supercritical,O2,C7782447,oxygen,154.58,50.43,13.6,0.07352941176470588,1.7,11.41503073567321,0.0006308088
262.79,577.03,21583.0,4.6333e-05,2.3101,4.9837,140.03,23.769,44.118,589.04,-0.0057193,51.297,0.071781,supercritical,O2,C7782447,oxygen,154.58,50.43,13.6,0.07352941176470588,1.7,11.442197104897877,0.0006301287999999999
262.79,578.39,21605.0,4.6285e-05,2.307,4.9841,140.01,23.771,44.106,589.8,-0.0059007,51.373,0.071879,supercritical,O2,C7782447,oxygen,154.58,50.43,13.6,0.07352941176470588,1.7,11.469165179456672,0.000629476
262.79,579.76,21628.0,4.6236e-05,2.3039,4.9844,139.99,23.774,44.093,590.56,-0.006081,51.448,0.071977,supercritical,O2,C7782447,oxygen,154.58,50.43,13.6,0.07352941176470588,1.7,11.49633154868134,0.0006288096
262.79,581.12,21651.0,4.6188e-05,2.3007,4.9848,139.96,23.777,44.081,591.32,-0.0062603,51.523,0.072075,supercritical,O2,C7782447,oxygen,154.58,50.43,13.6,0.07352941176470588,1.7,11.523299623240135,0.0006281568
262.79,582.49,21673.0,4.614e-05,2.2976,4.9852,139.94,23.78,44.069,592.08,-0.0064385,51.598,0.072172,supercritical,O2,C7782447,oxygen,154.58,50.43,13.6,0.07352941176470588,1.7,11.550465992464803,0.000627504
262.79,583.86,21696.0,4.6092e-05,2.2945,4.9856,139.92,23.783,44.056,592.83,-0.0066157,51.673,0.07227,supercritical,O2,C7782447,oxygen,154.58,50.43,13.6,0.07352941176470588,1.7,11.57763236168947,0.0006268512
262.79,585.22,21718.0,4.6044e-05,2.2914,4.986,139.9,23.786,44.044,593.59,-0.0067918,51.748,0.072367,supercritical,O2,C7782447,oxygen,154.58,50.43,13.6,0.07352941176470588,1.7,11.604600436248266,0.0006261984
262.79,586.59,21741.0,4.5997e-05,2.2883,4.9864,139.87,23.789,44.032,594.35,-0.006967,51.823,0.072465,supercritical,O2,C7782447,oxygen,154.58,50.43,13.6,0.07352941176470588,1.7,11.631766805472934,0.0006255592
262.79,587.95,21763.0,4.5949e-05,2.2852,4.9868,139.85,23.792,44.019,595.1,-0.0071411,51.898,0.072562,supercritical,O2,C7782447,oxygen,154.58,50.43,13.6,0.07352941176470588,1.7,11.658734880031728,0.0006249064
262.79,589.32,21785.0,4.5902e-05,2.2821,4.9872,139.83,23.795,44.007,595.85,-0.0073142,51.973,0.072659,supercritical,O2,C7782447,oxygen,154.58,50.43,13.6,0.07352941176470588,1.7,11.685901249256396,0.0006242672
262.79,590.68,21808.0,4.5856e-05,2.2791,4.9877,139.81,23.798,43.995,596.61,-0.0074864,52.048,0.072757,supercritical,O2,C7782447,oxygen,154.58,50.43,13.6,0.07352941176470588,1.7,11.71286932381519,0.0006236416000000001
262.79,592.04,21830.0,4.5809e-05,2.276,4.9881,139.78,23.8,43.983,597.36,-0.0076575,52.123,0.072854,supercritical,O2,C7782447,oxygen,154.58,50.43,13.6,0.07352941176470588,1.7,11.739837398373982,0.0006230024
262.79,593.41,21852.0,4.5763e-05,2.273,4.9886,139.76,23.803,43.971,598.11,-0.0078277,52.197,0.072951,supercritical,O2,C7782447,oxygen,154.58,50.43,13.6,0.07352941176470588,1.7,11.76700376759865,0.0006223768000000001
262.79,594.77,21874.0,4.5717e-05,2.27,4.9891,139.74,23.806,43.959,598.86,-0.0079969,52.272,0.073048,supercritical,O2,C7782447,oxygen,154.58,50.43,13.6,0.07352941176470588,1.7,11.793971842157445,0.0006217512
262.79,596.14,21896.0,4.5671e-05,2.2669,4.9896,139.72,23.809,43.947,599.61,-0.0081651,52.347,0.073145,supercritical,O2,C7782447,oxygen,154.58,50.43,13.6,0.07352941176470588,1.7,11.821138211382113,0.0006211255999999999
262.79,597.5,21917.0,4.5626e-05,2.2639,4.9901,139.7,23.812,43.935,600.35,-0.0083324,52.422,0.073242,supercritical,O2,C7782447,oxygen,154.58,50.43,13.6,0.07352941176470588,1.7,11.848106285940908,0.0006205135999999999
262.79,598.87,21939.0,4.558e-05,2.2609,4.9906,139.68,23.815,43.923,601.1,-0.0084987,52.496,0.073339,supercritical,O2,C7782447,oxygen,154.58,50.43,13.6,0.07352941176470588,1.7,11.875272655165576,0.000619888
262.79,600.24,21961.0,4.5535e-05,2.2579,4.9911,139.65,23.818,43.911,601.85,-0.0086641,52.571,0.073435,supercritical,O2,C7782447,oxygen,154.58,50.43,13.6,0.07352941176470588,1.7,11.902439024390244,0.000619276
262.79,601.6,21983.0,4.549e-05,2.2549,4.9916,139.63,23.821,43.899,602.59,-0.0088285,52.645,0.073532,supercritical,O2,C7782447,oxygen,154.58,50.43,13.6,0.07352941176470588,1.7,11.929407098949039,0.000618664
262.79,602.97,22004.0,4.5446e-05,2.2519,4.9921,139.61,23.823,43.887,603.34,-0.008992,52.72,0.073629,supercritical,O2,C7782447,oxygen,154.58,50.43,13.6,0.07352941176470588,1.7,11.956573468173707,0.0006180656
262.79,604.33,22026.0,4.5401e-05,2.249,4.9927,139.59,23.826,43.875,604.08,-0.0091546,52.794,0.073725,supercritical,O2,C7782447,oxygen,154.58,50.43,13.6,0.07352941176470588,1.7,11.983541542732501,0.0006174536
262.79,605.7,22047.0,4.5357e-05,2.246,4.9932,139.57,23.829,43.864,604.82,-0.0093163,52.869,0.073822,supercritical,O2,C7782447,oxygen,154.58,50.43,13.6,0.07352941176470588,1.7,12.01070791195717,0.0006168552
262.79,607.06,22069.0,4.5313e-05,2.243,4.9938,139.55,23.832,43.852,605.56,-0.009477,52.943,0.073918,supercritical,O2,C7782447,oxygen,154.58,50.43,13.6,0.07352941176470588,1.7,12.037675986515962,0.0006162568
262.79,608.42,22090.0,4.5269e-05,2.2401,4.9944,139.52,23.835,43.84,606.3,-0.0096369,53.017,0.074015,supercritical,O2,C7782447,oxygen,154.58,50.43,13.6,0.07352941176470588,1.7,12.064644061074757,0.0006156584000000001
262.79,609.79,22112.0,4.5225e-05,2.2372,4.995,139.5,23.838,43.828,607.04,-0.0097959,53.092,0.074111,supercritical,O2,C7782447,oxygen,154.58,50.43,13.6,0.07352941176470588,1.7,12.091810430299425,0.00061506
262.79,611.15,22133.0,4.5182e-05,2.2342,4.9955,139.48,23.84,43.817,607.78,-0.009954,53.166,0.074207,supercritical,O2,C7782447,oxygen,154.58,50.43,13.6,0.07352941176470588,1.7,12.118778504858218,0.0006144752
262.79,612.52,22154.0,4.5139e-05,2.2313,4.9961,139.46,23.843,43.805,608.52,-0.010111,53.24,0.074303,supercritical,O2,C7782447,oxygen,154.58,50.43,13.6,0.07352941176470588,1.7,12.145944874082886,0.0006138904
262.79,613.88,22175.0,4.5096e-05,2.2284,4.9968,139.44,23.846,43.794,609.25,-0.010267,53.314,0.074399,supercritical,O2,C7782447,oxygen,154.58,50.43,13.6,0.07352941176470588,1.7,12.172912948641681,0.0006133056000000001
262.79,615.25,22196.0,4.5053e-05,2.2255,4.9974,139.42,23.849,43.782,609.99,-0.010423,53.389,0.074496,supercritical,O2,C7782447,oxygen,154.58,50.43,13.6,0.07352941176470588,1.7,12.200079317866349,0.0006127207999999999
262.79,616.62,22217.0,4.501e-05,2.2226,4.998,139.4,23.852,43.771,610.72,-0.010578,53.463,0.074592,supercritical,O2,C7782447,oxygen,154.58,50.43,13.6,0.07352941176470588,1.7,12.227245687091017,0.000612136
262.79,617.98,22238.0,4.4968e-05,2.2197,4.9986,139.38,23.854,43.759,611.46,-0.010731,53.537,0.074687,supercritical,O2,C7782447,oxygen,154.58,50.43,13.6,0.07352941176470588,1.7,12.254213761649812,0.0006115647999999999
262.79,619.35,22259.0,4.4926e-05,2.2168,4.9993,139.36,23.857,43.748,612.19,-0.010884,53.611,0.074783,supercritical,O2,C7782447,oxygen,154.58,50.43,13.6,0.07352941176470588,1.7,12.28138013087448,0.0006109936
262.79,620.71,22280.0,4.4883e-05,2.214,4.9999,139.33,23.86,43.737,612.92,-0.011036,53.685,0.074879,supercritical,O2,C7782447,oxygen,154.58,50.43,13.6,0.07352941176470588,1.7,12.308348205433274,0.0006104088
262.79,622.08,22301.0,4.4842e-05,2.2111,5.0006,139.31,23.863,43.725,613.65,-0.011187,53.759,0.074975,supercritical,O2,C7782447,oxygen,154.58,50.43,13.6,0.07352941176470588,1.7,12.335514574657942,0.0006098512
262.79,623.44,22321.0,4.48e-05,2.2083,5.0013,139.29,23.866,43.714,614.38,-0.011338,53.833,0.075071,supercritical,O2,C7782447,oxygen,154.58,50.43,13.6,0.07352941176470588,1.7,12.362482649216737,0.0006092799999999999
262.79,624.8,22342.0,4.4759e-05,2.2054,5.002,139.27,23.868,43.703,615.11,-0.011487,53.907,0.075166,supercritical,O2,C7782447,oxygen,154.58,50.43,13.6,0.07352941176470588,1.7,12.38945072377553,0.0006087224
262.79,626.17,22363.0,4.4717e-05,2.2026,5.0026,139.25,23.871,43.691,615.84,-0.011636,53.981,0.075262,supercritical,O2,C7782447,oxygen,154.58,50.43,13.6,0.07352941176470588,1.7,12.416617093000198,0.0006081512
262.79,627.53,22383.0,4.4676e-05,2.1998,5.0033,139.23,23.874,43.68,616.56,-0.011784,54.055,0.075357,supercritical,O2,C7782447,oxygen,154.58,50.43,13.6,0.07352941176470588,1.7,12.443585167558993,0.0006075935999999999
262.79,628.9,22404.0,4.4635e-05,2.1969,5.0041,139.21,23.877,43.669,617.29,-0.011931,54.128,0.075453,supercritical,O2,C7782447,oxygen,154.58,50.43,13.6,0.07352941176470588,1.7,12.470751536783661,0.000607036
262.79,630.26,22424.0,4.4595e-05,2.1941,5.0048,139.19,23.879,43.658,618.02,-0.012078,54.202,0.075548,supercritical,O2,C7782447,oxygen,154.58,50.43,13.6,0.07352941176470588,1.7,12.497719611342454,0.000606492
262.79,631.63,22445.0,4.4554e-05,2.1913,5.0055,139.17,23.882,43.647,618.74,-0.012223,54.276,0.075643,supercritical,O2,C7782447,oxygen,154.58,50.43,13.6,0.07352941176470588,1.7,12.524885980567122,0.0006059344
262.79,633.0,22465.0,4.4514e-05,2.1885,5.0062,139.15,23.885,43.636,619.46,-0.012368,54.35,0.075739,supercritical,O2,C7782447,oxygen,154.58,50.43,13.6,0.07352941176470588,1.7,12.55205234979179,0.0006053904
262.79,634.36,22485.0,4.4474e-05,2.1857,5.007,139.13,23.888,43.625,620.19,-0.012512,54.423,0.075835,supercritical,O2,C7782447,oxygen,154.58,50.43,13.6,0.07352941176470588,1.7,12.579020424350585,0.0006048464
262.79,635.73,22505.0,4.4434e-05,2.183,5.0077,139.11,23.891,43.614,620.91,-0.012655,54.497,0.075931,supercritical,O2,C7782447,oxygen,154.58,50.43,13.6,0.07352941176470588,1.7,12.606186793575253,0.0006043024000000001
262.79,637.09,22526.0,4.4394e-05,2.1802,5.0085,139.09,23.893,43.603,621.63,-0.012798,54.571,0.076027,supercritical,O2,C7782447,oxygen,154.58,50.43,13.6,0.07352941176470588,1.7,12.633154868134048,0.0006037584000000001
262.79,638.46,22546.0,4.4354e-05,2.1774,5.0092,139.07,23.896,43.592,622.35,-0.012939,54.644,0.076122,supercritical,O2,C7782447,oxygen,154.58,50.43,13.6,0.07352941176470588,1.7,12.660321237358716,0.0006032144000000001
262.79,639.82,22566.0,4.4315e-05,2.1747,5.01,139.05,23.899,43.581,623.07,-0.01308,54.718,0.076218,supercritical,O2,C7782447,oxygen,154.58,50.43,13.6,0.07352941176470588,1.7,12.68728931191751,0.0006026839999999999
262.79,641.18,22586.0,4.4276e-05,2.1719,5.0108,139.03,23.901,43.57,623.79,-0.01322,54.791,0.076314,supercritical,O2,C7782447,oxygen,154.58,50.43,13.6,0.07352941176470588,1.7,12.714257386476303,0.0006021536
262.79,642.55,22606.0,4.4236e-05,2.1692,5.0116,139.01,23.904,43.56,624.5,-0.01336,54.865,0.076409,supercritical,O2,C7782447,oxygen,154.58,50.43,13.6,0.07352941176470588,1.7,12.741423755700971,0.0006016096
262.79,643.91,22626.0,4.4198e-05,2.1664,5.0124,138.99,23.907,43.549,625.22,-0.013498,54.938,0.076504,supercritical,O2,C7782447,oxygen,154.58,50.43,13.6,0.07352941176470588,1.7,12.768391830259766,0.0006010928
262.79,645.28,22646.0,4.4159e-05,2.1637,5.0132,138.97,23.91,43.538,625.94,-0.013636,55.012,0.0766,supercritical,O2,C7782447,oxygen,154.58,50.43,13.6,0.07352941176470588,1.7,12.795558199484434,0.0006005624
262.79,646.64,22665.0,4.412e-05,2.161,5.014,138.95,23.912,43.527,626.65,-0.013773,55.085,0.076695,supercritical,O2,C7782447,oxygen,154.58,50.43,13.6,0.07352941176470588,1.7,12.822526274043229,0.0006000319999999999
262.79,648.01,22685.0,4.4082e-05,2.1583,5.0148,138.93,23.915,43.517,627.37,-0.01391,55.159,0.076791,supercritical,O2,C7782447,oxygen,154.58,50.43,13.6,0.07352941176470588,1.7,12.849692643267897,0.0005995152