Temperature (K),Pressure (bar),Density (mol/m3),Volume (m3/mol),Internal Energy (kJ/mol),Enthalpy (kJ/mol),Entropy (J/mol*K),Cv (J/mol*K),Cp (J/mol*K),Sound Spd. (m/s),Joule-Thomson (K/bar),Viscosity (uPa*s),Therm. Cond. (W/m*K),Phase,substance,substance_id,substance_name,Tc,Pc,rhoc,Vmc,Tr,Pr,Vmr
170.04,383.2,27999.0,3.5716e-05,-0.89514,0.47349,122.45,25.809,51.129,662.78,-0.01544,78.006,0.096865,supercritical,O2,C7782447,oxygen,154.58,50.43,13.6,0.07352941176470588,1.1,7.59865159627206,0.0004857376
170.04,384.56,28018.0,3.5691e-05,-0.89799,0.47458,122.43,25.814,51.093,663.74,-0.015588,78.146,0.097004,supercritical,O2,C7782447,oxygen,154.58,50.43,13.6,0.07352941176470588,1.1,7.625619670830854,0.0004853976
170.04,385.93,28037.0,3.5667e-05,-0.90083,0.47567,122.41,25.819,51.057,664.69,-0.015734,78.286,0.097143,supercritical,O2,C7782447,oxygen,154.58,50.43,13.6,0.07352941176470588,1.1,7.652786040055522,0.0004850712
170.04,387.3,28056.0,3.5643e-05,-0.90366,0.47677,122.39,25.824,51.021,665.65,-0.01588,78.425,0.097282,supercritical,O2,C7782447,oxygen,154.58,50.43,13.6,0.07352941176470588,1.1,7.67995240928019,0.00048474479999999995
170.04,388.66,28075.0,3.5619e-05,-0.90648,0.47788,122.36,25.829,50.986,666.6,-0.016025,78.565,0.09742,supercritical,O2,C7782447,oxygen,154.58,50.43,13.6,0.07352941176470588,1.1,7.706920483838985,0.0004844184
170.04,390.02,28094.0,3.5595e-05,-0.90929,0.479,122.34,25.834,50.95,667.55,-0.016168,78.704,0.097558,supercritical,O2,C7782447,oxygen,154.58,50.43,13.6,0.07352941176470588,1.1,7.733888558397779,0.000484092
170.04,391.39,28113.0,3.5571e-05,-0.91208,0.48013,122.32,25.839,50.915,668.49,-0.01631,78.843,0.097696,supercritical,O2,C7782447,oxygen,154.58,50.43,13.6,0.07352941176470588,1.1,7.761054927622447,0.00048376560000000003
170.04,392.75,28132.0,3.5547e-05,-0.91487,0.48127,122.3,25.844,50.881,669.44,-0.016452,78.982,0.097833,supercritical,O2,C7782447,oxygen,154.58,50.43,13.6,0.07352941176470588,1.1,7.788023002181242,0.00048343919999999996
170.04,394.12,28150.0,3.5524e-05,-0.91764,0.48241,122.28,25.849,50.846,670.38,-0.016592,79.12,0.097971,supercritical,O2,C7782447,oxygen,154.58,50.43,13.6,0.07352941176470588,1.1,7.81518937140591,0.0004831264
170.04,395.49,28169.0,3.55e-05,-0.9204,0.48357,122.25,25.854,50.812,671.31,-0.016731,79.259,0.098108,supercritical,O2,C7782447,oxygen,154.58,50.43,13.6,0.07352941176470588,1.1,7.842355740630577,0.0004828
170.04,396.85,28188.0,3.5477e-05,-0.92316,0.48473,122.23,25.859,50.778,672.25,-0.016869,79.397,0.098244,supercritical,O2,C7782447,oxygen,154.58,50.43,13.6,0.07352941176470588,1.1,7.869323815189372,0.0004824872
170.04,398.21,28206.0,3.5453e-05,-0.9259,0.48591,122.21,25.864,50.745,673.18,-0.017006,79.535,0.098381,supercritical,O2,C7782447,oxygen,154.58,50.43,13.6,0.07352941176470588,1.1,7.8962918897481655,0.0004821608
170.04,399.58,28224.0,3.543e-05,-0.92863,0.48709,122.19,25.869,50.711,674.11,-0.017142,79.673,0.098517,supercritical,O2,C7782447,oxygen,154.58,50.43,13.6,0.07352941176470588,1.1,7.9234582589728335,0.00048184799999999994
170.04,400.94,28243.0,3.5407e-05,-0.93135,0.48828,122.17,25.874,50.678,675.04,-0.017278,79.811,0.098653,supercritical,O2,C7782447,oxygen,154.58,50.43,13.6,0.07352941176470588,1.1,7.950426333531628,0.0004815352
170.04,402.31,28261.0,3.5384e-05,-0.93406,0.48948,122.15,25.878,50.645,675.96,-0.017412,79.949,0.098789,supercritical,O2,C7782447,oxygen,154.58,50.43,13.6,0.07352941176470588,1.1,7.977592702756296,0.0004812224
170.04,403.68,28279.0,3.5361e-05,-0.93676,0.49069,122.13,25.883,50.612,676.88,-0.017545,80.086,0.098925,supercritical,O2,C7782447,oxygen,154.58,50.43,13.6,0.07352941176470588,1.1,8.004759071980963,0.0004809096
170.04,405.04,28298.0,3.5339e-05,-0.93946,0.4919,122.1,25.888,50.58,677.8,-0.017677,80.223,0.09906,supercritical,O2,C7782447,oxygen,154.58,50.43,13.6,0.07352941176470588,1.1,8.031727146539758,0.0004806104
170.04,406.4,28316.0,3.5316e-05,-0.94214,0.49313,122.08,25.893,50.548,678.72,-0.017808,80.36,0.099195,supercritical,O2,C7782447,oxygen,154.58,50.43,13.6,0.07352941176470588,1.1,8.058695221098551,0.00048029759999999996
170.04,407.77,28334.0,3.5294e-05,-0.94481,0.49436,122.06,25.898,50.516,679.63,-0.017939,80.497,0.09933,supercritical,O2,C7782447,oxygen,154.58,50.43,13.6,0.07352941176470588,1.1,8.08586159032322,0.00047999839999999995
170.04,409.13,28352.0,3.5271e-05,-0.94747,0.4956,122.04,25.903,50.484,680.54,-0.018068,80.634,0.099465,supercritical,O2,C7782447,oxygen,154.58,50.43,13.6,0.07352941176470588,1.1,8.112829664882014,0.00047968560000000003
170.04,410.5,28370.0,3.5249e-05,-0.95012,0.49685,122.02,25.908,50.453,681.45,-0.018196,80.771,0.099599,supercritical,O2,C7782447,oxygen,154.58,50.43,13.6,0.07352941176470588,1.1,8.139996034106682,0.0004793864
170.04,411.87,28387.0,3.5227e-05,-0.95276,0.49811,122.0,25.913,50.421,682.36,-0.018324,80.907,0.099733,supercritical,O2,C7782447,oxygen,154.58,50.43,13.6,0.07352941176470588,1.1,8.16716240333135,0.00047908719999999996
170.04,413.23,28405.0,3.5205e-05,-0.95539,0.49937,121.98,25.918,50.39,683.27,-0.01845,81.044,0.099867,supercritical,O2,C7782447,oxygen,154.58,50.43,13.6,0.07352941176470588,1.1,8.194130477890145,0.00047878799999999996
170.04,414.6,28423.0,3.5183e-05,-0.95801,0.50065,121.96,25.923,50.359,684.17,-0.018576,81.18,0.1,supercritical,O2,C7782447,oxygen,154.58,50.43,13.6,0.07352941176470588,1.1,8.221296847114813,0.00047848879999999995
170.04,415.96,28441.0,3.5161e-05,-0.96062,0.50193,121.94,25.928,50.329,685.07,-0.018701,81.316,0.10013,supercritical,O2,C7782447,oxygen,154.58,50.43,13.6,0.07352941176470588,1.1,8.248264921673607,0.00047818959999999995
170.04,417.32,28458.0,3.5139e-05,-0.96323,0.50322,121.92,25.933,50.298,685.96,-0.018825,81.452,0.10027,supercritical,O2,C7782447,oxygen,154.58,50.43,13.6,0.07352941176470588,1.1,8.2752329962324,0.00047789039999999994
170.04,418.69,28476.0,3.5117e-05,-0.96582,0.50451,121.9,25.938,50.268,686.86,-0.018948,81.587,0.1004,supercritical,O2,C7782447,oxygen,154.58,50.43,13.6,0.07352941176470588,1.1,8.302399365457068,0.00047759120000000004
170.04,420.06,28493.0,3.5096e-05,-0.9684,0.50582,121.87,25.943,50.238,687.75,-0.01907,81.723,0.10053,supercritical,O2,C7782447,oxygen,154.58,50.43,13.6,0.07352941176470588,1.1,8.329565734681736,0.00047730559999999996
170.04,421.42,28511.0,3.5074e-05,-0.97098,0.50713,121.85,25.947,50.208,688.64,-0.019191,81.858,0.10067,supercritical,O2,C7782447,oxygen,154.58,50.43,13.6,0.07352941176470588,1.1,8.356533809240531,0.0004770064
170.04,422.79,28528.0,3.5053e-05,-0.97354,0.50845,121.83,25.952,50.179,689.53,-0.019312,81.994,0.1008,supercritical,O2,C7782447,oxygen,154.58,50.43,13.6,0.07352941176470588,1.1,8.3837001784652,0.0004767208
170.04,424.15,28545.0,3.5032e-05,-0.9761,0.50977,121.81,25.957,50.149,690.42,-0.019432,82.129,0.10093,supercritical,O2,C7782447,oxygen,154.58,50.43,13.6,0.07352941176470588,1.1,8.410668253023994,0.0004764352
170.04,425.51,28563.0,3.5011e-05,-0.97865,0.51111,121.79,25.962,50.12,691.3,-0.01955,82.264,0.10106,supercritical,O2,C7782447,oxygen,154.58,50.43,13.6,0.07352941176470588,1.1,8.437636327582787,0.00047614959999999997
170.04,426.88,28580.0,3.499e-05,-0.98119,0.51245,121.77,25.967,50.091,692.18,-0.019668,82.398,0.10119,supercritical,O2,C7782447,oxygen,154.58,50.43,13.6,0.07352941176470588,1.1,8.464802696807455,0.000475864
170.04,428.25,28597.0,3.4969e-05,-0.98372,0.5138,121.75,25.972,50.062,693.06,-0.019786,82.533,0.10133,supercritical,O2,C7782447,oxygen,154.58,50.43,13.6,0.07352941176470588,1.1,8.491969066032123,0.00047557839999999997
170.04,429.61,28614.0,3.4948e-05,-0.98624,0.51515,121.73,25.977,50.034,693.94,-0.019902,82.668,0.10146,supercritical,O2,C7782447,oxygen,154.58,50.43,13.6,0.07352941176470588,1.1,8.518937140590918,0.00047529279999999994
170.04,430.98,28631.0,3.4927e-05,-0.98875,0.51652,121.71,25.982,50.005,694.81,-0.020018,82.802,0.10159,supercritical,O2,C7782447,oxygen,154.58,50.43,13.6,0.07352941176470588,1.1,8.546103509815586,0.00047500719999999996
170.04,432.34,28648.0,3.4906e-05,-0.99125,0.51789,121.69,25.986,49.977,695.68,-0.020133,82.936,0.10172,supercritical,O2,C7782447,oxygen,154.58,50.43,13.6,0.07352941176470588,1.1,8.57307158437438,0.0004747216
170.04,433.7,28665.0,3.4886e-05,-0.99374,0.51926,121.67,25.991,49.949,696.55,-0.020247,83.07,0.10185,supercritical,O2,C7782447,oxygen,154.58,50.43,13.6,0.07352941176470588,1.1,8.600039658933175,0.00047444959999999993
170.04,435.07,28682.0,3.4865e-05,-0.99623,0.52065,121.65,25.996,49.921,697.42,-0.02036,83.204,0.10198,supercritical,O2,C7782447,oxygen,154.58,50.43,13.6,0.07352941176470588,1.1,8.627206028157843,0.00047416399999999995
170.04,436.44,28699.0,3.4845e-05,-0.99871,0.52204,121.63,26.001,49.894,698.29,-0.020472,83.338,0.10211,supercritical,O2,C7782447,oxygen,154.58,50.43,13.6,0.07352941176470588,1.1,8.654372397382511,0.000473892
170.04,437.8,28716.0,3.4824e-05,-1.0012,0.52343,121.61,26.006,49.866,699.15,-0.020584,83.472,0.10224,supercritical,O2,C7782447,oxygen,154.58,50.43,13.6,0.07352941176470588,1.1,8.681340471941304,0.0004736063999999999
170.04,439.17,28732.0,3.4804e-05,-1.0036,0.52484,121.59,26.011,49.839,700.01,-0.020695,83.605,0.10237,supercritical,O2,C7782447,oxygen,154.58,50.43,13.6,0.07352941176470588,1.1,8.708506841165972,0.0004733344
170.04,440.53,28749.0,3.4784e-05,-1.0061,0.52625,121.57,26.016,49.812,700.87,-0.020806,83.738,0.1025,supercritical,O2,C7782447,oxygen,154.58,50.43,13.6,0.07352941176470588,1.1,8.735474915724767,0.0004730624
170.04,441.89,28766.0,3.4764e-05,-1.0085,0.52767,121.55,26.02,49.785,701.73,-0.020915,83.872,0.10263,supercritical,O2,C7782447,oxygen,154.58,50.43,13.6,0.07352941176470588,1.1,8.762442990283562,0.0004727904
170.04,443.26,28782.0,3.4744e-05,-1.011,0.52909,121.54,26.025,49.758,702.58,-0.021024,84.005,0.10276,supercritical,O2,C7782447,oxygen,154.58,50.43,13.6,0.07352941176470588,1.1,8.78960935950823,0.0004725184
170.04,444.62,28799.0,3.4724e-05,-1.0134,0.53052,121.52,26.03,49.732,703.44,-0.021132,84.138,0.10289,supercritical,O2,C7782447,oxygen,154.58,50.43,13.6,0.07352941176470588,1.1,8.816577434067023,0.00047224640000000003
170.04,445.99,28815.0,3.4704e-05,-1.0158,0.53196,121.5,26.035,49.705,704.29,-0.021239,84.271,0.10301,supercritical,O2,C7782447,oxygen,154.58,50.43,13.6,0.07352941176470588,1.1,8.84374380329169,0.0004719744
170.04,447.36,28831.0,3.4684e-05,-1.0182,0.53341,121.48,26.04,49.679,705.14,-0.021346,84.403,0.10314,supercritical,O2,C7782447,oxygen,154.58,50.43,13.6,0.07352941176470588,1.1,8.870910172516359,0.00047170240000000003
170.04,448.72,28848.0,3.4665e-05,-1.0206,0.53486,121.46,26.044,49.653,705.98,-0.021452,84.536,0.10327,supercritical,O2,C7782447,oxygen,154.58,50.43,13.6,0.07352941176470588,1.1,8.897878247075154,0.000471444
170.04,450.08,28864.0,3.4645e-05,-1.023,0.53631,121.44,26.049,49.627,706.83,-0.021557,84.668,0.1034,supercritical,O2,C7782447,oxygen,154.58,50.43,13.6,0.07352941176470588,1.1,8.924846321633948,0.00047117199999999995
170.04,451.45,28880.0,3.4626e-05,-1.0254,0.53778,121.42,26.054,49.601,707.67,-0.021662,84.801,0.10353,supercritical,O2,C7782447,oxygen,154.58,50.43,13.6,0.07352941176470588,1.1,8.952012690858616,0.00047091359999999993
170.04,452.81,28896.0,3.4606e-05,-1.0278,0.53925,121.4,26.059,49.576,708.51,-0.021766,84.933,0.10365,supercritical,O2,C7782447,oxygen,154.58,50.43,13.6,0.07352941176470588,1.1,8.978980765417411,0.0004706416
170.04,454.18,28913.0,3.4587e-05,-1.0301,0.54072,121.38,26.064,49.55,709.35,-0.021869,85.065,0.10378,supercritical,O2,C7782447,oxygen,154.58,50.43,13.6,0.07352941176470588,1.1,9.00614713464208,0.00047038319999999996
170.04,455.55,28929.0,3.4568e-05,-1.0325,0.54221,121.36,26.068,49.525,710.19,-0.021972,85.197,0.10391,supercritical,O2,C7782447,oxygen,154.58,50.43,13.6,0.07352941176470588,1.1,9.033313503866747,0.0004701248
170.04,456.91,28945.0,3.4549e-05,-1.0349,0.54369,121.34,26.073,49.5,711.03,-0.022074,85.328,0.10404,supercritical,O2,C7782447,oxygen,154.58,50.43,13.6,0.07352941176470588,1.1,9.06028157842554,0.00046986639999999996
170.04,458.27,28961.0,3.4529e-05,-1.0372,0.54519,121.32,26.078,49.475,711.86,-0.022175,85.46,0.10416,supercritical,O2,C7782447,oxygen,154.58,50.43,13.6,0.07352941176470588,1.1,9.087249652984335,0.0004695944
170.04,459.64,28977.0,3.451e-05,-1.0396,0.54669,121.31,26.083,49.45,712.69,-0.022276,85.592,0.10429,supercritical,O2,C7782447,oxygen,154.58,50.43,13.6,0.07352941176470588,1.1,9.114416022209003,0.000469336
170.04,461.0,28993.0,3.4492e-05,-1.0419,0.5482,121.29,26.087,49.426,713.52,-0.022376,85.723,0.10442,supercritical,O2,C7782447,oxygen,154.58,50.43,13.6,0.07352941176470588,1.1,9.141384096767798,0.0004690912
170.04,462.37,29008.0,3.4473e-05,-1.0442,0.54971,121.27,26.092,49.401,714.35,-0.022475,85.854,0.10454,supercritical,O2,C7782447,oxygen,154.58,50.43,13.6,0.07352941176470588,1.1,9.168550465992466,0.0004688328
170.04,463.74,29024.0,3.4454e-05,-1.0465,0.55123,121.25,26.097,49.377,715.17,-0.022574,85.985,0.10467,supercritical,O2,C7782447,oxygen,154.58,50.43,13.6,0.07352941176470588,1.1,9.195716835217134,0.00046857439999999995
170.04,465.1,29040.0,3.4435e-05,-1.0488,0.55275,121.23,26.101,49.353,716.0,-0.022672,86.117,0.10479,supercritical,O2,C7782447,oxygen,154.58,50.43,13.6,0.07352941176470588,1.1,9.222684909775927,0.000468316
170.04,466.46,29056.0,3.4417e-05,-1.0511,0.55428,121.21,26.106,49.329,716.82,-0.02277,86.247,0.10492,supercritical,O2,C7782447,oxygen,154.58,50.43,13.6,0.07352941176470588,1.1,9.249652984334721,0.0004680712
170.04,467.83,29071.0,3.4398e-05,-1.0534,0.55582,121.19,26.111,49.305,717.64,-0.022867,86.378,0.10505,supercritical,O2,C7782447,oxygen,154.58,50.43,13.6,0.07352941176470588,1.1,9.27681935355939,0.00046781279999999996
170.04,469.19,29087.0,3.438e-05,-1.0557,0.55736,121.17,26.116,49.281,718.46,-0.022963,86.509,0.10517,supercritical,O2,C7782447,oxygen,154.58,50.43,13.6,0.07352941176470588,1.1,9.303787428118184,0.00046756799999999997
170.04,470.56,29103.0,3.4361e-05,-1.058,0.55891,121.16,26.12,49.258,719.27,-0.023059,86.639,0.1053,supercritical,O2,C7782447,oxygen,154.58,50.43,13.6,0.07352941176470588,1.1,9.330953797342852,0.00046730959999999994
170.04,471.93,29118.0,3.4343e-05,-1.0603,0.56046,121.14,26.125,49.234,720.09,-0.023154,86.77,0.10542,supercritical,O2,C7782447,oxygen,154.58,50.43,13.6,0.07352941176470588,1.1,9.35812016656752,0.0004670648
170.04,473.29,29134.0,3.4325e-05,-1.0625,0.56202,121.12,26.13,49.211,720.9,-0.023248,86.9,0.10555,supercritical,O2,C7782447,oxygen,154.58,50.43,13.6,0.07352941176470588,1.1,9.385088241126315,0.00046682
170.04,474.65,29149.0,3.4306e-05,-1.0648,0.56358,121.1,26.134,49.188,721.71,-0.023342,87.03,0.10567,supercritical,O2,C7782447,oxygen,154.58,50.43,13.6,0.07352941176470588,1.1,9.412056315685108,0.0004665616
170.04,476.02,29164.0,3.4288e-05,-1.067,0.56515,121.08,26.139,49.165,722.52,-0.023436,87.16,0.10579,supercritical,O2,C7782447,oxygen,154.58,50.43,13.6,0.07352941176470588,1.1,9.439222684909776,0.0004663168
170.04,477.38,29180.0,3.427e-05,-1.0693,0.56673,121.06,26.144,49.142,723.33,-0.023529,87.29,0.10592,supercritical,O2,C7782447,oxygen,154.58,50.43,13.6,0.07352941176470588,1.1,9.46619075946857,0.000466072
170.04,478.75,29195.0,3.4252e-05,-1.0715,0.56831,121.05,26.148,49.119,724.14,-0.023621,87.42,0.10604,supercritical,O2,C7782447,oxygen,154.58,50.43,13.6,0.07352941176470588,1.1,9.493357128693239,0.00046582719999999994
170.04,480.12,29210.0,3.4234e-05,-1.0738,0.5699,121.03,26.153,49.097,724.94,-0.023712,87.55,0.10617,supercritical,O2,C7782447,oxygen,154.58,50.43,13.6,0.07352941176470588,1.1,9.520523497917907,0.00046558239999999995
170.04,481.48,29226.0,3.4217e-05,-1.076,0.57149,121.01,26.158,49.074,725.74,-0.023804,87.68,0.10629,supercritical,O2,C7782447,oxygen,154.58,50.43,13.6,0.07352941176470588,1.1,9.547491572476702,0.0004653512
170.04,482.85,29241.0,3.4199e-05,-1.0782,0.57309,120.99,26.162,49.052,726.54,-0.023894,87.809,0.10641,supercritical,O2,C7782447,oxygen,154.58,50.43,13.6,0.07352941176470588,1.1,9.57465794170137,0.00046510640000000004
170.04,484.21,29256.0,3.4181e-05,-1.0804,0.57469,120.97,26.167,49.03,727.34,-0.023984,87.939,0.10654,supercritical,O2,C7782447,oxygen,154.58,50.43,13.6,0.07352941176470588,1.1,9.601626016260163,0.00046486159999999994
170.04,485.57,29271.0,3.4164e-05,-1.0826,0.5763,120.96,26.172,49.008,728.14,-0.024074,88.068,0.10666,supercritical,O2,C7782447,oxygen,154.58,50.43,13.6,0.07352941176470588,1.1,9.628594090818957,0.0004646304
170.04,486.94,29286.0,3.4146e-05,-1.0848,0.57791,120.94,26.176,48.986,728.94,-0.024163,88.197,0.10678,supercritical,O2,C7782447,oxygen,154.58,50.43,13.6,0.07352941176470588,1.1,9.655760460043625,0.0004643856
170.04,488.31,29301.0,3.4129e-05,-1.087,0.57953,120.92,26.181,48.964,729.73,-0.024251,88.326,0.10691,supercritical,O2,C7782447,oxygen,154.58,50.43,13.6,0.07352941176470588,1.1,9.682926829268293,0.00046415439999999996
170.04,489.67,29316.0,3.4111e-05,-1.0892,0.58115,120.9,26.185,48.942,730.52,-0.024339,88.455,0.10703,supercritical,O2,C7782447,oxygen,154.58,50.43,13.6,0.07352941176470588,1.1,9.709894903827088,0.00046390959999999997
170.04,491.04,29331.0,3.4094e-05,-1.0913,0.58278,120.88,26.19,48.921,731.31,-0.024426,88.584,0.10715,supercritical,O2,C7782447,oxygen,154.58,50.43,13.6,0.07352941176470588,1.1,9.737061273051756,0.0004636784
170.04,492.4,29346.0,3.4077e-05,-1.0935,0.58441,120.87,26.195,48.899,732.1,-0.024513,88.713,0.10727,supercritical,O2,C7782447,oxygen,154.58,50.43,13.6,0.07352941176470588,1.1,9.764029347610549,0.0004634472
170.04,493.76,29361.0,3.4059e-05,-1.0957,0.58605,120.85,26.199,48.878,732.89,-0.024599,88.841,0.10739,supercritical,O2,C7782447,oxygen,154.58,50.43,13.6,0.07352941176470588,1.1,9.790997422169344,0.0004632024
170.04,495.13,29375.0,3.4042e-05,-1.0978,0.5877,120.83,26.204,48.857,733.67,-0.024685,88.97,0.10752,supercritical,O2,C7782447,oxygen,154.58,50.43,13.6,0.07352941176470588,1.1,9.818163791394012,0.00046297119999999997
170.04,496.5,29390.0,3.4025e-05,-1.1,0.58934,120.81,26.208,48.836,734.46,-0.02477,89.098,0.10764,supercritical,O2,C7782447,oxygen,154.58,50.43,13.6,0.07352941176470588,1.1,9.84533016061868,0.00046274
170.04,497.86,29405.0,3.4008e-05,-1.1021,0.591,120.8,26.213,48.815,735.24,-0.024855,89.226,0.10776,supercritical,O2,C7782447,oxygen,154.58,50.43,13.6,0.07352941176470588,1.1,9.872298235177475,0.00046250879999999993
170.04,499.23,29420.0,3.3991e-05,-1.1043,0.59266,120.78,26.218,48.794,736.02,-0.02494,89.355,0.10788,supercritical,O2,C7782447,oxygen,154.58,50.43,13.6,0.07352941176470588,1.1,9.899464604402143,0.00046227759999999997
170.04,500.59,29434.0,3.3974e-05,-1.1064,0.59432,120.76,26.222,48.773,736.8,-0.025023,89.483,0.108,supercritical,O2,C7782447,oxygen,154.58,50.43,13.6,0.07352941176470588,1.1,9.926432678960936,0.00046204639999999995
170.04,501.95,29449.0,3.3957e-05,-1.1085,0.59599,120.74,26.227,48.753,737.58,-0.025107,89.611,0.10812,supercritical,O2,C7782447,oxygen,154.58,50.43,13.6,0.07352941176470588,1.1,9.95340075351973,0.0004618152
170.04,503.32,29463.0,3.3941e-05,-1.1106,0.59766,120.73,26.231,48.732,738.35,-0.02519,89.739,0.10824,supercritical,O2,C7782447,oxygen,154.58,50.43,13.6,0.07352941176470588,1.1,9.980567122744398,0.0004615976
170.04,504.69,29478.0,3.3924e-05,-1.1127,0.59934,120.71,26.236,48.712,739.13,-0.025272,89.866,0.10836,supercritical,O2,C7782447,oxygen,154.58,50.43,13.6,0.07352941176470588,1.1,10.007733491969066,0.00046136640000000003
170.04,506.05,29492.0,3.3907e-05,-1.1148,0.60102,120.69,26.24,48.692,739.9,-0.025354,89.994,0.10848,supercritical,O2,C7782447,oxygen,154.58,50.43,13.6,0.07352941176470588,1.1,10.034701566527861,0.00046113519999999996
170.04,507.42,29507.0,3.3891e-05,-1.1169,0.60271,120.67,26.245,48.672,740.67,-0.025435,90.122,0.1086,supercritical,O2,C7782447,oxygen,154.58,50.43,13.6,0.07352941176470588,1.1,10.06186793575253,0.00046091759999999997
170.04,508.78,29521.0,3.3874e-05,-1.119,0.6044,120.66,26.249,48.652,741.44,-0.025516,90.249,0.10872,supercritical,O2,C7782447,oxygen,154.58,50.43,13.6,0.07352941176470588,1.1,10.088836010311322,0.0004606864