Temperature (K),Pressure (bar),Density (mol/m3),Volume (m3/mol),Internal Energy (kJ/mol),Enthalpy (kJ/mol),Entropy (J/mol*K),Cv (J/mol*K),Cp (J/mol*K),Sound Spd. (m/s),Joule-Thomson (K/bar),Viscosity (uPa*s),Therm. Cond. (W/m*K),Phase,substance,substance_id,substance_name,Tc,Pc,rhoc,Vmc,Tr,Pr,Vmr
582.3,1987.1,48652.0,2.0554e-05,21.233,25.317,53.199,53.294,73.635,1620.3,-0.011494,123.86,0.74079,liquid,H2O,C7732185,water,647.0,220.64,17.9,0.0558659217877095,0.9000000000000001,9.006073241479333,0.00036791659999999997
582.3,1994.4,48674.0,2.0545e-05,21.225,25.323,53.184,53.294,73.606,1621.9,-0.011525,123.98,0.74137,liquid,H2O,C7732185,water,647.0,220.64,17.9,0.0558659217877095,0.9000000000000001,9.039158810732415,0.0003677555
582.3,2001.7,48695.0,2.0536e-05,21.218,25.329,53.169,53.293,73.576,1623.6,-0.011556,124.09,0.74196,liquid,H2O,C7732185,water,647.0,220.64,17.9,0.0558659217877095,0.9000000000000001,9.072244379985497,0.0003675944
582.3,2009.1,48716.0,2.0527e-05,21.211,25.335,53.153,53.292,73.547,1625.2,-0.011587,124.2,0.74254,liquid,H2O,C7732185,water,647.0,220.64,17.9,0.0558659217877095,0.9000000000000001,9.105783176214649,0.00036743329999999996
582.3,2016.4,48738.0,2.0518e-05,21.204,25.342,53.138,53.292,73.518,1626.9,-0.011617,124.31,0.74312,liquid,H2O,C7732185,water,647.0,220.64,17.9,0.0558659217877095,0.9000000000000001,9.13886874546773,0.00036727219999999994
582.3,2023.8,48759.0,2.0509e-05,21.197,25.348,53.123,53.291,73.49,1628.5,-0.011647,124.43,0.7437,liquid,H2O,C7732185,water,647.0,220.64,17.9,0.0558659217877095,0.9000000000000001,9.172407541696883,0.00036711109999999997
582.3,2031.1,48780.0,2.05e-05,21.19,25.354,53.108,53.29,73.461,1630.2,-0.011678,124.54,0.74428,liquid,H2O,C7732185,water,647.0,220.64,17.9,0.0558659217877095,0.9000000000000001,9.205493110949964,0.00036695
582.3,2038.5,48801.0,2.0491e-05,21.183,25.361,53.093,53.29,73.433,1631.8,-0.011708,124.65,0.74487,liquid,H2O,C7732185,water,647.0,220.64,17.9,0.0558659217877095,0.9000000000000001,9.239031907179116,0.0003667889
582.3,2045.8,48822.0,2.0482e-05,21.177,25.367,53.078,53.289,73.404,1633.5,-0.011737,124.77,0.74544,liquid,H2O,C7732185,water,647.0,220.64,17.9,0.0558659217877095,0.9000000000000001,9.272117476432198,0.0003666278
582.3,2053.2,48843.0,2.0474e-05,21.17,25.373,53.063,53.289,73.376,1635.1,-0.011767,124.88,0.74602,liquid,H2O,C7732185,water,647.0,220.64,17.9,0.0558659217877095,0.9000000000000001,9.305656272661349,0.00036648459999999997
582.3,2060.5,48864.0,2.0465e-05,21.163,25.38,53.048,53.288,73.348,1636.7,-0.011797,124.99,0.7466,liquid,H2O,C7732185,water,647.0,220.64,17.9,0.0558659217877095,0.9000000000000001,9.338741841914432,0.0003663235
582.3,2067.9,48885.0,2.0456e-05,21.156,25.386,53.033,53.287,73.32,1638.3,-0.011826,125.1,0.74718,liquid,H2O,C7732185,water,647.0,220.64,17.9,0.0558659217877095,0.9000000000000001,9.372280638143584,0.00036616239999999993
582.3,2075.2,48906.0,2.0447e-05,21.149,25.392,53.019,53.287,73.292,1640.0,-0.011855,125.21,0.74776,liquid,H2O,C7732185,water,647.0,220.64,17.9,0.0558659217877095,0.9000000000000001,9.405366207396664,0.00036600129999999996
582.3,2082.6,48927.0,2.0439e-05,21.142,25.399,53.004,53.286,73.265,1641.6,-0.011884,125.33,0.74833,liquid,H2O,C7732185,water,647.0,220.64,17.9,0.0558659217877095,0.9000000000000001,9.438905003625816,0.00036585809999999997
582.3,2089.9,48948.0,2.043e-05,21.135,25.405,52.989,53.285,73.237,1643.2,-0.011913,125.44,0.74891,liquid,H2O,C7732185,water,647.0,220.64,17.9,0.0558659217877095,0.9000000000000001,9.471990572878898,0.00036569699999999995
582.3,2097.3,48968.0,2.0421e-05,21.129,25.412,52.974,53.285,73.21,1644.8,-0.011942,125.55,0.74948,liquid,H2O,C7732185,water,647.0,220.64,17.9,0.0558659217877095,0.9000000000000001,9.50552936910805,0.0003655359
582.3,2104.6,48989.0,2.0413e-05,21.122,25.418,52.959,53.284,73.182,1646.4,-0.01197,125.66,0.75006,liquid,H2O,C7732185,water,647.0,220.64,17.9,0.0558659217877095,0.9000000000000001,9.538614938361132,0.00036539269999999994
582.3,2112.0,49010.0,2.0404e-05,21.115,25.424,52.945,53.284,73.155,1648.0,-0.011999,125.77,0.75063,liquid,H2O,C7732185,water,647.0,220.64,17.9,0.0558659217877095,0.9000000000000001,9.572153734590284,0.0003652316
582.3,2119.3,49030.0,2.0396e-05,21.108,25.431,52.93,53.283,73.128,1649.6,-0.012027,125.88,0.7512,liquid,H2O,C7732185,water,647.0,220.64,17.9,0.0558659217877095,0.9000000000000001,9.605239303843366,0.0003650884
582.3,2126.7,49051.0,2.0387e-05,21.102,25.437,52.915,53.282,73.101,1651.2,-0.012055,125.99,0.75177,liquid,H2O,C7732185,water,647.0,220.64,17.9,0.0558659217877095,0.9000000000000001,9.638778100072516,0.00036492729999999996
582.3,2134.0,49071.0,2.0378e-05,21.095,25.444,52.901,53.282,73.075,1652.8,-0.012083,126.1,0.75234,liquid,H2O,C7732185,water,647.0,220.64,17.9,0.0558659217877095,0.9000000000000001,9.6718636693256,0.0003647662
582.3,2141.4,49092.0,2.037e-05,21.088,25.45,52.886,53.281,73.048,1654.4,-0.01211,126.21,0.75291,liquid,H2O,C7732185,water,647.0,220.64,17.9,0.0558659217877095,0.9000000000000001,9.705402465554752,0.00036462299999999995
582.3,2148.7,49112.0,2.0362e-05,21.082,25.457,52.872,53.281,73.022,1656.0,-0.012138,126.33,0.75348,liquid,H2O,C7732185,water,647.0,220.64,17.9,0.0558659217877095,0.9000000000000001,9.738488034807832,0.00036447979999999997
582.3,2156.1,49133.0,2.0353e-05,21.075,25.463,52.857,53.28,72.995,1657.6,-0.012165,126.44,0.75405,liquid,H2O,C7732185,water,647.0,220.64,17.9,0.0558659217877095,0.9000000000000001,9.772026831036984,0.0003643187
582.3,2163.4,49153.0,2.0345e-05,21.069,25.47,52.843,53.28,72.969,1659.2,-0.012193,126.55,0.75462,liquid,H2O,C7732185,water,647.0,220.64,17.9,0.0558659217877095,0.9000000000000001,9.805112400290067,0.00036417549999999996
582.3,2170.8,49173.0,2.0336e-05,21.062,25.476,52.828,53.279,72.943,1660.7,-0.01222,126.66,0.75519,liquid,H2O,C7732185,water,647.0,220.64,17.9,0.0558659217877095,0.9000000000000001,9.838651196519217,0.0003640144
582.3,2178.1,49193.0,2.0328e-05,21.055,25.483,52.814,53.278,72.917,1662.3,-0.012247,126.77,0.75575,liquid,H2O,C7732185,water,647.0,220.64,17.9,0.0558659217877095,0.9000000000000001,9.8717367657723,0.00036387119999999995
582.3,2185.5,49214.0,2.032e-05,21.049,25.49,52.8,53.278,72.891,1663.9,-0.012273,126.88,0.75632,liquid,H2O,C7732185,water,647.0,220.64,17.9,0.0558659217877095,0.9000000000000001,9.905275562001451,0.00036372799999999996
582.3,2192.8,49234.0,2.0311e-05,21.042,25.496,52.785,53.277,72.865,1665.4,-0.0123,126.99,0.75689,liquid,H2O,C7732185,water,647.0,220.64,17.9,0.0558659217877095,0.9000000000000001,9.938361131254533,0.00036356689999999994
582.3,2200.2,49254.0,2.0303e-05,21.036,25.503,52.771,53.277,72.84,1667.0,-0.012327,127.1,0.75745,liquid,H2O,C7732185,water,647.0,220.64,17.9,0.0558659217877095,0.9000000000000001,9.971899927483683,0.00036342369999999995
582.3,2207.5,49274.0,2.0295e-05,21.029,25.509,52.757,53.276,72.814,1668.6,-0.012353,127.21,0.75801,liquid,H2O,C7732185,water,647.0,220.64,17.9,0.0558659217877095,0.9000000000000001,10.004985496736767,0.0003632805
582.3,2214.8,49294.0,2.0286e-05,21.023,25.516,52.742,53.276,72.789,1670.1,-0.012379,127.31,0.75858,liquid,H2O,C7732185,water,647.0,220.64,17.9,0.0558659217877095,0.9000000000000001,10.038071065989849,0.00036311939999999994
582.3,2222.2,49314.0,2.0278e-05,21.016,25.523,52.728,53.275,72.764,1671.7,-0.012405,127.42,0.75914,liquid,H2O,C7732185,water,647.0,220.64,17.9,0.0558659217877095,0.9000000000000001,10.071609862218999,0.0003629762
582.3,2229.5,49334.0,2.027e-05,21.01,25.529,52.714,53.275,72.739,1673.2,-0.012431,127.53,0.7597,liquid,H2O,C7732185,water,647.0,220.64,17.9,0.0558659217877095,0.9000000000000001,10.104695431472082,0.000362833
582.3,2236.9,49354.0,2.0262e-05,21.003,25.536,52.7,53.274,72.714,1674.8,-0.012457,127.64,0.76026,liquid,H2O,C7732185,water,647.0,220.64,17.9,0.0558659217877095,0.9000000000000001,10.138234227701235,0.00036268979999999997
582.3,2244.2,49373.0,2.0254e-05,20.997,25.543,52.686,53.274,72.689,1676.3,-0.012483,127.75,0.76082,liquid,H2O,C7732185,water,647.0,220.64,17.9,0.0558659217877095,0.9000000000000001,10.171319796954315,0.0003625466
582.3,2251.6,49393.0,2.0246e-05,20.991,25.549,52.672,53.273,72.664,1677.9,-0.012508,127.86,0.76138,liquid,H2O,C7732185,water,647.0,220.64,17.9,0.0558659217877095,0.9000000000000001,10.204858593183467,0.00036240339999999994
582.3,2258.9,49413.0,2.0238e-05,20.984,25.556,52.658,53.273,72.639,1679.4,-0.012534,127.97,0.76194,liquid,H2O,C7732185,water,647.0,220.64,17.9,0.0558659217877095,0.9000000000000001,10.23794416243655,0.00036226019999999995
582.3,2266.3,49433.0,2.023e-05,20.978,25.563,52.644,53.272,72.615,1680.9,-0.012559,128.08,0.7625,liquid,H2O,C7732185,water,647.0,220.64,17.9,0.0558659217877095,0.9000000000000001,10.2714829586657,0.000362117
582.3,2273.6,49452.0,2.0221e-05,20.972,25.569,52.63,53.272,72.59,1682.5,-0.012584,128.19,0.76306,liquid,H2O,C7732185,water,647.0,220.64,17.9,0.0558659217877095,0.9000000000000001,10.304568527918782,0.00036195589999999994
582.3,2281.0,49472.0,2.0213e-05,20.965,25.576,52.616,53.271,72.566,1684.0,-0.012609,128.29,0.76362,liquid,H2O,C7732185,water,647.0,220.64,17.9,0.0558659217877095,0.9000000000000001,10.338107324147934,0.0003618127
582.3,2288.3,49492.0,2.0205e-05,20.959,25.583,52.602,53.271,72.542,1685.5,-0.012634,128.4,0.76417,liquid,H2O,C7732185,water,647.0,220.64,17.9,0.0558659217877095,0.9000000000000001,10.371192893401016,0.00036166949999999996
582.3,2295.7,49511.0,2.0198e-05,20.953,25.589,52.588,53.27,72.518,1687.0,-0.012659,128.51,0.76473,liquid,H2O,C7732185,water,647.0,220.64,17.9,0.0558659217877095,0.9000000000000001,10.404731689630166,0.00036154419999999995
582.3,2303.0,49531.0,2.019e-05,20.947,25.596,52.574,53.27,72.494,1688.6,-0.012683,128.62,0.76528,liquid,H2O,C7732185,water,647.0,220.64,17.9,0.0558659217877095,0.9000000000000001,10.43781725888325,0.000361401
582.3,2310.4,49550.0,2.0182e-05,20.94,25.603,52.56,53.269,72.47,1690.1,-0.012708,128.73,0.76584,liquid,H2O,C7732185,water,647.0,220.64,17.9,0.0558659217877095,0.9000000000000001,10.471356055112402,0.0003612578
582.3,2317.7,49569.0,2.0174e-05,20.934,25.61,52.546,53.269,72.446,1691.6,-0.012732,128.83,0.76639,liquid,H2O,C7732185,water,647.0,220.64,17.9,0.0558659217877095,0.9000000000000001,10.504441624365482,0.0003611146
582.3,2325.1,49589.0,2.0166e-05,20.928,25.617,52.532,53.268,72.422,1693.1,-0.012756,128.94,0.76694,liquid,H2O,C7732185,water,647.0,220.64,17.9,0.0558659217877095,0.9000000000000001,10.537980420594634,0.0003609714
582.3,2332.4,49608.0,2.0158e-05,20.922,25.623,52.519,53.268,72.399,1694.6,-0.01278,129.05,0.76749,liquid,H2O,C7732185,water,647.0,220.64,17.9,0.0558659217877095,0.9000000000000001,10.571065989847718,0.00036082819999999995
582.3,2339.8,49627.0,2.015e-05,20.915,25.63,52.505,53.267,72.375,1696.1,-0.012804,129.16,0.76805,liquid,H2O,C7732185,water,647.0,220.64,17.9,0.0558659217877095,0.9000000000000001,10.60460478607687,0.00036068499999999997
582.3,2347.1,49647.0,2.0142e-05,20.909,25.637,52.491,53.267,72.352,1697.6,-0.012828,129.26,0.7686,liquid,H2O,C7732185,water,647.0,220.64,17.9,0.0558659217877095,0.9000000000000001,10.63769035532995,0.0003605418
582.3,2354.5,49666.0,2.0135e-05,20.903,25.644,52.477,53.266,72.328,1699.1,-0.012852,129.37,0.76915,liquid,H2O,C7732185,water,647.0,220.64,17.9,0.0558659217877095,0.9000000000000001,10.671229151559102,0.00036041649999999997
582.3,2361.8,49685.0,2.0127e-05,20.897,25.651,52.464,53.266,72.305,1700.6,-0.012875,129.48,0.76969,liquid,H2O,C7732185,water,647.0,220.64,17.9,0.0558659217877095,0.9000000000000001,10.704314720812183,0.0003602733
582.3,2369.2,49704.0,2.0119e-05,20.891,25.657,52.45,53.265,72.282,1702.1,-0.012899,129.58,0.77024,liquid,H2O,C7732185,water,647.0,220.64,17.9,0.0558659217877095,0.9000000000000001,10.737853517041334,0.0003601301
582.3,2376.5,49723.0,2.0111e-05,20.885,25.664,52.437,53.265,72.259,1703.6,-0.012922,129.69,0.77079,liquid,H2O,C7732185,water,647.0,220.64,17.9,0.0558659217877095,0.9000000000000001,10.770939086294417,0.0003599869
582.3,2383.9,49742.0,2.0104e-05,20.879,25.671,52.423,53.265,72.236,1705.1,-0.012946,129.8,0.77134,liquid,H2O,C7732185,water,647.0,220.64,17.9,0.0558659217877095,0.9000000000000001,10.80447788252357,0.0003598616
582.3,2391.2,49761.0,2.0096e-05,20.873,25.678,52.409,53.264,72.214,1706.5,-0.012969,129.9,0.77188,liquid,H2O,C7732185,water,647.0,220.64,17.9,0.0558659217877095,0.9000000000000001,10.83756345177665,0.00035971839999999995
582.3,2398.6,49780.0,2.0088e-05,20.867,25.685,52.396,53.264,72.191,1708.0,-0.012992,130.01,0.77243,liquid,H2O,C7732185,water,647.0,220.64,17.9,0.0558659217877095,0.9000000000000001,10.871102248005801,0.0003595752
582.3,2405.9,49799.0,2.0081e-05,20.861,25.692,52.382,53.263,72.168,1709.5,-0.013014,130.12,0.77297,liquid,H2O,C7732185,water,647.0,220.64,17.9,0.0558659217877095,0.9000000000000001,10.904187817258885,0.00035944989999999995
582.3,2413.3,49818.0,2.0073e-05,20.855,25.699,52.369,53.263,72.146,1711.0,-0.013037,130.22,0.77352,liquid,H2O,C7732185,water,647.0,220.64,17.9,0.0558659217877095,0.9000000000000001,10.937726613488037,0.00035930669999999996
582.3,2420.6,49837.0,2.0065e-05,20.849,25.706,52.355,53.262,72.124,1712.5,-0.01306,130.33,0.77406,liquid,H2O,C7732185,water,647.0,220.64,17.9,0.0558659217877095,0.9000000000000001,10.970812182741117,0.00035916349999999997
582.3,2428.0,49856.0,2.0058e-05,20.843,25.713,52.342,53.262,72.101,1713.9,-0.013082,130.43,0.7746,liquid,H2O,C7732185,water,647.0,220.64,17.9,0.0558659217877095,0.9000000000000001,11.004350978970269,0.00035903819999999996
582.3,2435.3,49874.0,2.005e-05,20.837,25.72,52.329,53.262,72.079,1715.4,-0.013105,130.54,0.77514,liquid,H2O,C7732185,water,647.0,220.64,17.9,0.0558659217877095,0.9000000000000001,11.037436548223353,0.00035889499999999997
582.3,2442.6,49893.0,2.0043e-05,20.831,25.726,52.315,53.261,72.057,1716.9,-0.013127,130.65,0.77568,liquid,H2O,C7732185,water,647.0,220.64,17.9,0.0558659217877095,0.9000000000000001,11.070522117476433,0.0003587697
582.3,2450.0,49912.0,2.0035e-05,20.825,25.733,52.302,53.261,72.035,1718.3,-0.013149,130.75,0.77622,liquid,H2O,C7732185,water,647.0,220.64,17.9,0.0558659217877095,0.9000000000000001,11.104060913705585,0.00035862649999999997
582.3,2457.3,49931.0,2.0028e-05,20.819,25.74,52.289,53.26,72.013,1719.8,-0.013171,130.86,0.77676,liquid,H2O,C7732185,water,647.0,220.64,17.9,0.0558659217877095,0.9000000000000001,11.137146482958666,0.00035850119999999996
582.3,2464.7,49949.0,2.002e-05,20.813,25.747,52.275,53.26,71.991,1721.2,-0.013193,130.96,0.77729,liquid,H2O,C7732185,water,647.0,220.64,17.9,0.0558659217877095,0.9000000000000001,11.170685279187817,0.00035835800000000003
582.3,2472.0,49968.0,2.0013e-05,20.807,25.754,52.262,53.259,71.97,1722.7,-0.013215,131.07,0.77783,liquid,H2O,C7732185,water,647.0,220.64,17.9,0.0558659217877095,0.9000000000000001,11.2037708484409,0.00035823269999999996
582.3,2479.4,49986.0,2.0005e-05,20.801,25.761,52.249,53.259,71.948,1724.1,-0.013237,131.17,0.77836,liquid,H2O,C7732185,water,647.0,220.64,17.9,0.0558659217877095,0.9000000000000001,11.237309644670052,0.0003580895
582.3,2486.7,50005.0,1.9998e-05,20.795,25.768,52.236,53.259,71.926,1725.6,-0.013259,131.28,0.77889,liquid,H2O,C7732185,water,647.0,220.64,17.9,0.0558659217877095,0.9000000000000001,11.270395213923132,0.00035796419999999996
582.3,2494.1,50023.0,1.9991e-05,20.79,25.775,52.222,53.258,71.905,1727.0,-0.01328,131.38,0.77942,liquid,H2O,C7732185,water,647.0,220.64,17.9,0.0558659217877095,0.9000000000000001,11.303934010152284,0.00035783889999999995
582.3,2501.4,50042.0,1.9983e-05,20.784,25.782,52.209,53.258,71.884,1728.5,-0.013301,131.49,0.77995,liquid,H2O,C7732185,water,647.0,220.64,17.9,0.0558659217877095,0.9000000000000001,11.337019579405368,0.0003576957
582.3,2508.8,50060.0,1.9976e-05,20.778,25.789,52.196,53.257,71.862,1729.9,-0.013323,131.59,0.78047,liquid,H2O,C7732185,water,647.0,220.64,17.9,0.0558659217877095,0.9000000000000001,11.37055837563452,0.00035757039999999995
582.3,2516.1,50079.0,1.9969e-05,20.772,25.796,52.183,53.257,71.841,1731.3,-0.013344,131.7,0.78099,liquid,H2O,C7732185,water,647.0,220.64,17.9,0.0558659217877095,0.9000000000000001,11.4036439448876,0.0003574451
582.3,2523.5,50097.0,1.9961e-05,20.766,25.804,52.17,53.257,71.82,1732.8,-0.013365,131.8,0.78151,liquid,H2O,C7732185,water,647.0,220.64,17.9,0.0558659217877095,0.9000000000000001,11.437182741116752,0.0003573019
582.3,2530.8,50115.0,1.9954e-05,20.761,25.811,52.157,53.256,71.799,1734.2,-0.013386,131.91,0.78199,liquid,H2O,C7732185,water,647.0,220.64,17.9,0.0558659217877095,0.9000000000000001,11.470268310369836,0.00035717659999999994
582.3,2538.2,50134.0,1.9947e-05,20.755,25.818,52.144,53.256,71.778,1735.6,-0.013407,132.01,0.7825,liquid,H2O,C7732185,water,647.0,220.64,17.9,0.0558659217877095,0.9000000000000001,11.503807106598984,0.0003570513
582.3,2545.5,50152.0,1.9939e-05,20.749,25.825,52.131,53.256,71.757,1737.1,-0.013428,132.12,0.78305,liquid,H2O,C7732185,water,647.0,220.64,17.9,0.0558659217877095,0.9000000000000001,11.536892675852068,0.0003569081
582.3,2552.9,50170.0,1.9932e-05,20.743,25.832,52.118,53.255,71.737,1738.5,-0.013448,132.22,0.78359,liquid,H2O,C7732185,water,647.0,220.64,17.9,0.0558659217877095,0.9000000000000001,11.57043147208122,0.0003567828
582.3,2560.2,50188.0,1.9925e-05,20.738,25.839,52.105,53.255,71.716,1739.9,-0.013469,132.32,0.78414,liquid,H2O,C7732185,water,647.0,220.64,17.9,0.0558659217877095,0.9000000000000001,11.6035170413343,0.0003566575
582.3,2567.6,50206.0,1.9918e-05,20.732,25.846,52.092,53.254,71.695,1741.3,-0.01349,132.43,0.78468,liquid,H2O,C7732185,water,647.0,220.64,17.9,0.0558659217877095,0.9000000000000001,11.637055837563452,0.0003565322
582.3,2574.9,50224.0,1.9911e-05,20.726,25.853,52.079,53.254,71.675,1742.7,-0.01351,132.53,0.78522,liquid,H2O,C7732185,water,647.0,220.64,17.9,0.0558659217877095,0.9000000000000001,11.670141406816535,0.00035640689999999996
582.3,2582.3,50242.0,1.9904e-05,20.721,25.86,52.066,53.254,71.654,1744.2,-0.01353,132.64,0.78576,liquid,H2O,C7732185,water,647.0,220.64,17.9,0.0558659217877095,0.9000000000000001,11.703680203045687,0.0003562816
582.3,2589.6,50260.0,1.9896e-05,20.715,25.867,52.053,53.253,71.634,1745.6,-0.01355,132.74,0.78631,liquid,H2O,C7732185,water,647.0,220.64,17.9,0.0558659217877095,0.9000000000000001,11.736765772298767,0.0003561384
582.3,2597.0,50278.0,1.9889e-05,20.709,25.875,52.04,53.253,71.614,1747.0,-0.013571,132.84,0.78685,liquid,H2O,C7732185,water,647.0,220.64,17.9,0.0558659217877095,0.9000000000000001,11.77030456852792,0.00035601309999999995
582.3,2604.3,50296.0,1.9882e-05,20.704,25.882,52.027,53.253,71.594,1748.4,-0.01359,132.95,0.78739,liquid,H2O,C7732185,water,647.0,220.64,17.9,0.0558659217877095,0.9000000000000001,11.803390137781003,0.0003558878
582.3,2611.7,50314.0,1.9875e-05,20.698,25.889,52.015,53.252,71.574,1749.8,-0.01361,133.05,0.78793,liquid,H2O,C7732185,water,647.0,220.64,17.9,0.0558659217877095,0.9000000000000001,11.836928934010151,0.0003557624999999999
582.3,2619.0,50332.0,1.9868e-05,20.693,25.896,52.002,53.252,71.554,1751.2,-0.01363,133.15,0.78847,liquid,H2O,C7732185,water,647.0,220.64,17.9,0.0558659217877095,0.9000000000000001,11.870014503263235,0.00035563719999999997
582.3,2626.4,50350.0,1.9861e-05,20.687,25.903,51.989,53.252,71.534,1752.6,-0.01365,133.26,0.78901,liquid,H2O,C7732185,water,647.0,220.64,17.9,0.0558659217877095,0.9000000000000001,11.903553299492387,0.00035551189999999996
582.3,2633.7,50368.0,1.9854e-05,20.681,25.91,51.976,53.251,71.514,1754.0,-0.01367,133.36,0.78955,liquid,H2O,C7732185,water,647.0,220.64,17.9,0.0558659217877095,0.9000000000000001,11.936638868745467,0.0003553866
582.3,2641.1,50386.0,1.9847e-05,20.676,25.918,51.964,53.251,71.494,1755.4,-0.013689,133.46,0.79008,liquid,H2O,C7732185,water,647.0,220.64,17.9,0.0558659217877095,0.9000000000000001,11.970177664974619,0.0003552613