Temperature (K),Pressure (bar),Density (mol/m3),Volume (m3/mol),Internal Energy (kJ/mol),Enthalpy (kJ/mol),Entropy (J/mol*K),Cv (J/mol*K),Cp (J/mol*K),Sound Spd. (m/s),Joule-Thomson (K/bar),Viscosity (uPa*s),Therm. Cond. (W/m*K),Phase,substance,substance_id,substance_name,Tc,Pc,rhoc,Vmc,Tr,Pr,Vmr
970.5,1406.5,21686.0,4.6113e-05,50.652,57.138,96.844,43.253,78.007,889.46,0.06301,58.633,0.32153,supercritical,H2O,C7732185,water,647.0,220.64,17.9,0.0558659217877095,1.5,6.3746374184191446,0.0008254226999999999
970.5,1413.9,21779.0,4.5917e-05,50.61,57.102,96.772,43.268,77.992,891.64,0.06237,58.767,0.32281,supercritical,H2O,C7732185,water,647.0,220.64,17.9,0.0558659217877095,1.5,6.408176214648297,0.0008219143
970.5,1421.2,21871.0,4.5723e-05,50.568,57.067,96.701,43.284,77.976,893.82,0.061738,58.9,0.32408,supercritical,H2O,C7732185,water,647.0,220.64,17.9,0.0558659217877095,1.5,6.441261783901378,0.0008184417
970.5,1428.6,21963.0,4.5532e-05,50.527,57.032,96.63,43.298,77.959,896.01,0.061112,59.034,0.32535,supercritical,H2O,C7732185,water,647.0,220.64,17.9,0.0558659217877095,1.5,6.4748005801305295,0.0008150227999999999
970.5,1435.9,22054.0,4.5344e-05,50.486,56.997,96.56,43.313,77.941,898.2,0.060493,59.167,0.32661,supercritical,H2O,C7732185,water,647.0,220.64,17.9,0.0558659217877095,1.5,6.507886149383612,0.0008116575999999999
970.5,1443.3,22145.0,4.5158e-05,50.445,56.962,96.49,43.328,77.923,900.4,0.059881,59.299,0.32786,supercritical,H2O,C7732185,water,647.0,220.64,17.9,0.0558659217877095,1.5,6.541424945612763,0.0008083281999999999
970.5,1450.6,22235.0,4.4975e-05,50.404,56.928,96.421,43.342,77.903,902.6,0.059276,59.431,0.32911,supercritical,H2O,C7732185,water,647.0,220.64,17.9,0.0558659217877095,1.5,6.574510514865845,0.0008050525
970.5,1458.0,22324.0,4.4794e-05,50.364,56.894,96.352,43.356,77.882,904.8,0.058677,59.563,0.33036,supercritical,H2O,C7732185,water,647.0,220.64,17.9,0.0558659217877095,1.5,6.608049311094997,0.0008018125999999999
970.5,1465.3,22414.0,4.4615e-05,50.323,56.861,96.284,43.37,77.861,907.0,0.058084,59.695,0.3316,supercritical,H2O,C7732185,water,647.0,220.64,17.9,0.0558659217877095,1.5,6.641134880348078,0.0007986085
970.5,1472.7,22503.0,4.4439e-05,50.283,56.828,96.216,43.384,77.838,909.2,0.057498,59.826,0.33284,supercritical,H2O,C7732185,water,647.0,220.64,17.9,0.0558659217877095,1.5,6.67467367657723,0.0007954580999999999
970.5,1480.0,22591.0,4.4266e-05,50.244,56.795,96.149,43.398,77.815,911.41,0.056919,59.957,0.33407,supercritical,H2O,C7732185,water,647.0,220.64,17.9,0.0558659217877095,1.5,6.707759245830312,0.0007923613999999999
970.5,1487.4,22679.0,4.4094e-05,50.204,56.763,96.082,43.411,77.791,913.61,0.056345,60.088,0.3353,supercritical,H2O,C7732185,water,647.0,220.64,17.9,0.0558659217877095,1.5,6.741298042059464,0.0007892826
970.5,1494.7,22766.0,4.3925e-05,50.165,56.731,96.016,43.425,77.767,915.82,0.055778,60.218,0.33652,supercritical,H2O,C7732185,water,647.0,220.64,17.9,0.0558659217877095,1.5,6.774383611312546,0.0007862574999999999
970.5,1502.1,22853.0,4.3758e-05,50.126,56.699,95.95,43.438,77.742,918.03,0.055217,60.348,0.33774,supercritical,H2O,C7732185,water,647.0,220.64,17.9,0.0558659217877095,1.5,6.807922407541697,0.0007832681999999999
970.5,1509.4,22939.0,4.3594e-05,50.088,56.668,95.884,43.451,77.716,920.24,0.054663,60.477,0.33896,supercritical,H2O,C7732185,water,647.0,220.64,17.9,0.0558659217877095,1.5,6.84100797679478,0.0007803326
970.5,1516.8,23025.0,4.3431e-05,50.049,56.637,95.819,43.464,77.689,922.45,0.054114,60.607,0.34016,supercritical,H2O,C7732185,water,647.0,220.64,17.9,0.0558659217877095,1.5,6.874546773023931,0.0007774148999999999
970.5,1524.1,23111.0,4.327e-05,50.011,56.606,95.755,43.477,77.662,924.67,0.053571,60.735,0.34137,supercritical,H2O,C7732185,water,647.0,220.64,17.9,0.0558659217877095,1.5,6.9076323422770125,0.0007745329999999999
970.5,1531.5,23196.0,4.3112e-05,49.973,56.575,95.691,43.489,77.634,926.88,0.053034,60.864,0.34257,supercritical,H2O,C7732185,water,647.0,220.64,17.9,0.0558659217877095,1.5,6.9411711385061645,0.0007717048
970.5,1538.8,23280.0,4.2955e-05,49.935,56.545,95.627,43.502,77.606,929.09,0.052503,60.992,0.34376,supercritical,H2O,C7732185,water,647.0,220.64,17.9,0.0558659217877095,1.5,6.974256707759246,0.0007688945
970.5,1546.1,23364.0,4.2801e-05,49.898,56.516,95.564,43.514,77.577,931.31,0.051978,61.12,0.34495,supercritical,H2O,C7732185,water,647.0,220.64,17.9,0.0558659217877095,1.5,7.007342277012328,0.0007661378999999999
970.5,1553.5,23448.0,4.2648e-05,49.861,56.486,95.501,43.526,77.547,933.52,0.051459,61.248,0.34614,supercritical,H2O,C7732185,water,647.0,220.64,17.9,0.0558659217877095,1.5,7.04088107324148,0.0007633992
970.5,1560.8,23531.0,4.2497e-05,49.824,56.457,95.439,43.538,77.517,935.73,0.050945,61.375,0.34732,supercritical,H2O,C7732185,water,647.0,220.64,17.9,0.0558659217877095,1.5,7.073966642494561,0.0007606963
970.5,1568.2,23614.0,4.2348e-05,49.787,56.428,95.377,43.55,77.487,937.95,0.050437,61.502,0.3485,supercritical,H2O,C7732185,water,647.0,220.64,17.9,0.0558659217877095,1.5,7.107505438723713,0.0007580292
970.5,1575.5,23696.0,4.2201e-05,49.75,56.4,95.316,43.562,77.456,940.16,0.049934,61.629,0.34967,supercritical,H2O,C7732185,water,647.0,220.64,17.9,0.0558659217877095,1.5,7.140591007976795,0.0007553978999999999
970.5,1582.9,23778.0,4.2056e-05,49.714,56.371,95.255,43.574,77.425,942.37,0.049437,61.755,0.35084,supercritical,H2O,C7732185,water,647.0,220.64,17.9,0.0558659217877095,1.5,7.174129804205947,0.0007528023999999999
970.5,1590.2,23859.0,4.1913e-05,49.678,56.343,95.194,43.586,77.393,944.59,0.048945,61.881,0.35201,supercritical,H2O,C7732185,water,647.0,220.64,17.9,0.0558659217877095,1.5,7.207215373459029,0.0007502426999999999
970.5,1597.6,23940.0,4.1771e-05,49.642,56.316,95.134,43.597,77.361,946.8,0.048459,62.007,0.35317,supercritical,H2O,C7732185,water,647.0,220.64,17.9,0.0558659217877095,1.5,7.24075416968818,0.0007477008999999999
970.5,1604.9,24021.0,4.1631e-05,49.607,56.288,95.074,43.609,77.328,949.01,0.047978,62.133,0.35432,supercritical,H2O,C7732185,water,647.0,220.64,17.9,0.0558659217877095,1.5,7.273839738941263,0.0007451949
970.5,1612.3,24101.0,4.1493e-05,49.571,56.261,95.015,43.62,77.295,951.22,0.047502,62.258,0.35548,supercritical,H2O,C7732185,water,647.0,220.64,17.9,0.0558659217877095,1.5,7.307378535170414,0.0007427246999999999
970.5,1619.6,24180.0,4.1356e-05,49.536,56.234,94.956,43.631,77.262,953.43,0.047031,62.383,0.35662,supercritical,H2O,C7732185,water,647.0,220.64,17.9,0.0558659217877095,1.5,7.3404641044234955,0.0007402724
970.5,1627.0,24260.0,4.1221e-05,49.501,56.208,94.897,43.642,77.229,955.63,0.046565,62.507,0.35777,supercritical,H2O,C7732185,water,647.0,220.64,17.9,0.0558659217877095,1.5,7.3740029006526475,0.0007378558999999999
970.5,1634.3,24338.0,4.1087e-05,49.466,56.181,94.839,43.653,77.195,957.84,0.046105,62.631,0.35891,supercritical,H2O,C7732185,water,647.0,220.64,17.9,0.0558659217877095,1.5,7.407088469905729,0.0007354573
970.5,1641.7,24417.0,4.0955e-05,49.432,56.155,94.781,43.664,77.161,960.04,0.045649,62.755,0.36004,supercritical,H2O,C7732185,water,647.0,220.64,17.9,0.0558659217877095,1.5,7.440627266134881,0.0007330944999999998
970.5,1649.0,24495.0,4.0825e-05,49.397,56.13,94.724,43.675,77.126,962.25,0.045198,62.879,0.36117,supercritical,H2O,C7732185,water,647.0,220.64,17.9,0.0558659217877095,1.5,7.473712835387963,0.0007307675
970.5,1656.4,24572.0,4.0696e-05,49.363,56.104,94.666,43.686,77.092,964.45,0.044752,63.002,0.3623,supercritical,H2O,C7732185,water,647.0,220.64,17.9,0.0558659217877095,1.5,7.507251631617114,0.0007284583999999999
970.5,1663.7,24650.0,4.0569e-05,49.329,56.079,94.61,43.696,77.057,966.65,0.044311,63.125,0.36342,supercritical,H2O,C7732185,water,647.0,220.64,17.9,0.0558659217877095,1.5,7.540337200870196,0.0007261850999999999
970.5,1671.1,24726.0,4.0443e-05,49.296,56.054,94.553,43.707,77.022,968.84,0.043874,63.248,0.36454,supercritical,H2O,C7732185,water,647.0,220.64,17.9,0.0558659217877095,1.5,7.573875997099347,0.0007239296999999999
970.5,1678.4,24803.0,4.0318e-05,49.262,56.029,94.497,43.717,76.986,971.04,0.043443,63.371,0.36566,supercritical,H2O,C7732185,water,647.0,220.64,17.9,0.0558659217877095,1.5,7.60696156635243,0.0007216922
970.5,1685.8,24879.0,4.0195e-05,49.229,56.005,94.442,43.728,76.951,973.23,0.043015,63.493,0.36677,supercritical,H2O,C7732185,water,647.0,220.64,17.9,0.0558659217877095,1.5,7.640500362581581,0.0007194904999999999
970.5,1693.1,24954.0,4.0073e-05,49.196,55.981,94.386,43.738,76.915,975.43,0.042593,63.615,0.36788,supercritical,H2O,C7732185,water,647.0,220.64,17.9,0.0558659217877095,1.5,7.673585931834663,0.0007173066999999999
970.5,1700.5,25030.0,3.9953e-05,49.163,55.957,94.331,43.748,76.879,977.62,0.042175,63.736,0.36898,supercritical,H2O,C7732185,water,647.0,220.64,17.9,0.0558659217877095,1.5,7.707124728063815,0.0007151586999999999
970.5,1707.8,25104.0,3.9834e-05,49.13,55.933,94.277,43.758,76.843,979.8,0.041761,63.857,0.37008,supercritical,H2O,C7732185,water,647.0,220.64,17.9,0.0558659217877095,1.5,7.740210297316897,0.0007130286
970.5,1715.2,25179.0,3.9716e-05,49.098,55.909,94.222,43.768,76.807,981.99,0.041352,63.979,0.37118,supercritical,H2O,C7732185,water,647.0,220.64,17.9,0.0558659217877095,1.5,7.773749093546049,0.0007109163999999999
970.5,1722.5,25253.0,3.96e-05,49.065,55.886,94.168,43.778,76.77,984.17,0.040947,64.099,0.37227,supercritical,H2O,C7732185,water,647.0,220.64,17.9,0.0558659217877095,1.5,7.8068346627991305,0.00070884
970.5,1729.9,25326.0,3.9484e-05,49.033,55.863,94.115,43.788,76.734,986.35,0.040546,64.22,0.37336,supercritical,H2O,C7732185,water,647.0,220.64,17.9,0.0558659217877095,1.5,7.8403734590282825,0.0007067635999999999
970.5,1737.2,25400.0,3.937e-05,49.001,55.84,94.061,43.798,76.697,988.53,0.040149,64.34,0.37444,supercritical,H2O,C7732185,water,647.0,220.64,17.9,0.0558659217877095,1.5,7.873459028281364,0.0007047229999999999
970.5,1744.6,25473.0,3.9258e-05,48.969,55.818,94.009,43.808,76.66,990.7,0.039757,64.46,0.37553,supercritical,H2O,C7732185,water,647.0,220.64,17.9,0.0558659217877095,1.5,7.906997824510515,0.0007027182
970.5,1751.9,25545.0,3.9146e-05,48.938,55.796,93.956,43.817,76.623,992.87,0.039369,64.579,0.3766,supercritical,H2O,C7732185,water,647.0,220.64,17.9,0.0558659217877095,1.5,7.940083393763597,0.0007007134
970.5,1759.3,25617.0,3.9036e-05,48.906,55.774,93.904,43.827,76.586,995.04,0.038984,64.699,0.37768,supercritical,H2O,C7732185,water,647.0,220.64,17.9,0.0558659217877095,1.5,7.973622189992748,0.0006987443999999999
970.5,1766.6,25689.0,3.8927e-05,48.875,55.752,93.852,43.836,76.549,997.21,0.038604,64.818,0.37875,supercritical,H2O,C7732185,water,647.0,220.64,17.9,0.0558659217877095,1.5,8.006707759245831,0.0006967933
970.5,1773.9,25761.0,3.8819e-05,48.844,55.73,93.8,43.846,76.512,999.37,0.038228,64.937,0.37982,supercritical,H2O,C7732185,water,647.0,220.64,17.9,0.0558659217877095,1.5,8.039793328498913,0.0006948601
970.5,1781.3,25832.0,3.8712e-05,48.813,55.709,93.748,43.855,76.475,1001.5,0.037855,65.055,0.38088,supercritical,H2O,C7732185,water,647.0,220.64,17.9,0.0558659217877095,1.5,8.073332124728065,0.0006929448
970.5,1788.6,25902.0,3.8606e-05,48.782,55.688,93.697,43.865,76.437,1003.7,0.037487,65.174,0.38194,supercritical,H2O,C7732185,water,647.0,220.64,17.9,0.0558659217877095,1.5,8.106417693981145,0.0006910474
970.5,1796.0,25973.0,3.8502e-05,48.752,55.667,93.647,43.874,76.4,1005.8,0.037122,65.292,0.383,supercritical,H2O,C7732185,water,647.0,220.64,17.9,0.0558659217877095,1.5,8.139956490210297,0.0006891857999999999
970.5,1803.3,26043.0,3.8398e-05,48.721,55.646,93.596,43.883,76.362,1008.0,0.036761,65.409,0.38406,supercritical,H2O,C7732185,water,647.0,220.64,17.9,0.0558659217877095,1.5,8.173042059463379,0.0006873242
970.5,1810.7,26113.0,3.8296e-05,48.691,55.625,93.546,43.892,76.325,1010.1,0.036403,65.527,0.38511,supercritical,H2O,C7732185,water,647.0,220.64,17.9,0.0558659217877095,1.5,8.20658085569253,0.0006854984
970.5,1818.0,26182.0,3.8194e-05,48.661,55.605,93.496,43.901,76.287,1012.3,0.03605,65.644,0.38615,supercritical,H2O,C7732185,water,647.0,220.64,17.9,0.0558659217877095,1.5,8.239666424945613,0.0006836726
970.5,1825.4,26251.0,3.8094e-05,48.631,55.585,93.446,43.91,76.25,1014.4,0.035699,65.761,0.3872,supercritical,H2O,C7732185,water,647.0,220.64,17.9,0.0558659217877095,1.5,8.273205221174765,0.0006818826
970.5,1832.7,26320.0,3.7995e-05,48.602,55.565,93.397,43.919,76.212,1016.6,0.035353,65.878,0.38824,supercritical,H2O,C7732185,water,647.0,220.64,17.9,0.0558659217877095,1.5,8.306290790427846,0.0006801104999999999
970.5,1840.1,26388.0,3.7896e-05,48.572,55.545,93.348,43.928,76.174,1018.7,0.03501,65.994,0.38928,supercritical,H2O,C7732185,water,647.0,220.64,17.9,0.0558659217877095,1.5,8.339829586656998,0.0006783383999999999
970.5,1847.4,26456.0,3.7799e-05,48.543,55.526,93.299,43.937,76.137,1020.8,0.03467,66.111,0.39031,supercritical,H2O,C7732185,water,647.0,220.64,17.9,0.0558659217877095,1.5,8.37291515591008,0.0006766021
970.5,1854.8,26524.0,3.7702e-05,48.514,55.507,93.251,43.946,76.099,1023.0,0.034334,66.227,0.39134,supercritical,H2O,C7732185,water,647.0,220.64,17.9,0.0558659217877095,1.5,8.406453952139232,0.0006748657999999999
970.5,1862.1,26591.0,3.7607e-05,48.485,55.488,93.203,43.954,76.061,1025.1,0.034001,66.342,0.39237,supercritical,H2O,C7732185,water,647.0,220.64,17.9,0.0558659217877095,1.5,8.439539521392314,0.0006731653
970.5,1869.5,26658.0,3.7512e-05,48.456,55.469,93.155,43.963,76.023,1027.2,0.033671,66.458,0.3934,supercritical,H2O,C7732185,water,647.0,220.64,17.9,0.0558659217877095,1.5,8.473078317621466,0.0006714648
970.5,1876.8,26725.0,3.7419e-05,48.427,55.45,93.107,43.972,75.986,1029.3,0.033345,66.573,0.39442,supercritical,H2O,C7732185,water,647.0,220.64,17.9,0.0558659217877095,1.5,8.506163886874548,0.0006698000999999999
970.5,1884.2,26791.0,3.7326e-05,48.399,55.431,93.06,43.98,75.948,1031.5,0.033022,66.688,0.39544,supercritical,H2O,C7732185,water,647.0,220.64,17.9,0.0558659217877095,1.5,8.5397026831037,0.0006681354
970.5,1891.5,26857.0,3.7234e-05,48.37,55.413,93.013,43.989,75.91,1033.6,0.032702,66.803,0.39646,supercritical,H2O,C7732185,water,647.0,220.64,17.9,0.0558659217877095,1.5,8.57278825235678,0.0006664886
970.5,1898.9,26923.0,3.7143e-05,48.342,55.395,92.966,43.997,75.872,1035.7,0.032385,66.917,0.39747,supercritical,H2O,C7732185,water,647.0,220.64,17.9,0.0558659217877095,1.5,8.606327048585932,0.0006648597
970.5,1906.2,26988.0,3.7053e-05,48.314,55.377,92.919,44.006,75.835,1037.8,0.032071,67.032,0.39848,supercritical,H2O,C7732185,water,647.0,220.64,17.9,0.0558659217877095,1.5,8.639412617839014,0.0006632487
970.5,1913.6,27053.0,3.6964e-05,48.286,55.359,92.873,44.014,75.797,1039.9,0.031761,67.146,0.39949,supercritical,H2O,C7732185,water,647.0,220.64,17.9,0.0558659217877095,1.5,8.672951414068166,0.0006616555999999999
970.5,1920.9,27118.0,3.6876e-05,48.258,55.342,92.827,44.023,75.759,1042.0,0.031453,67.259,0.40049,supercritical,H2O,C7732185,water,647.0,220.64,17.9,0.0558659217877095,1.5,8.706036983321248,0.0006600803999999999
970.5,1928.3,27183.0,3.6788e-05,48.23,55.324,92.781,44.031,75.722,1044.1,0.031149,67.373,0.4015,supercritical,H2O,C7732185,water,647.0,220.64,17.9,0.0558659217877095,1.5,8.7395757795504,0.0006585051999999999
970.5,1935.6,27247.0,3.6702e-05,48.203,55.307,92.735,44.039,75.684,1046.2,0.030847,67.486,0.40249,supercritical,H2O,C7732185,water,647.0,220.64,17.9,0.0558659217877095,1.5,8.772661348803481,0.0006569658
970.5,1943.0,27311.0,3.6616e-05,48.176,55.29,92.69,44.048,75.646,1048.2,0.030548,67.599,0.40349,supercritical,H2O,C7732185,water,647.0,220.64,17.9,0.0558659217877095,1.5,8.806200145032633,0.0006554264
970.5,1950.3,27374.0,3.6531e-05,48.148,55.273,92.645,44.056,75.609,1050.3,0.030252,67.712,0.40448,supercritical,H2O,C7732185,water,647.0,220.64,17.9,0.0558659217877095,1.5,8.839285714285715,0.0006539049
970.5,1957.7,27438.0,3.6446e-05,48.121,55.256,92.6,44.064,75.571,1052.4,0.029959,67.825,0.40548,supercritical,H2O,C7732185,water,647.0,220.64,17.9,0.0558659217877095,1.5,8.872824510514867,0.0006523834
970.5,1965.0,27501.0,3.6363e-05,48.094,55.24,92.555,44.072,75.534,1054.5,0.029669,67.937,0.40646,supercritical,H2O,C7732185,water,647.0,220.64,17.9,0.0558659217877095,1.5,8.90591007976795,0.0006508976999999999
970.5,1972.4,27563.0,3.628e-05,48.068,55.223,92.511,44.08,75.496,1056.6,0.029381,68.049,0.40745,supercritical,H2O,C7732185,water,647.0,220.64,17.9,0.0558659217877095,1.5,8.939448875997101,0.0006494119999999999
970.5,1979.7,27626.0,3.6198e-05,48.041,55.207,92.467,44.088,75.459,1058.6,0.029096,68.161,0.40843,supercritical,H2O,C7732185,water,647.0,220.64,17.9,0.0558659217877095,1.5,8.972534445250181,0.0006479442
970.5,1987.1,27688.0,3.6117e-05,48.014,55.191,92.423,44.096,75.422,1060.7,0.028814,68.273,0.40941,supercritical,H2O,C7732185,water,647.0,220.64,17.9,0.0558659217877095,1.5,9.006073241479333,0.0006464943
970.5,1994.4,27750.0,3.6036e-05,47.988,55.175,92.379,44.104,75.384,1062.7,0.028535,68.384,0.41039,supercritical,H2O,C7732185,water,647.0,220.64,17.9,0.0558659217877095,1.5,9.039158810732415,0.0006450443999999999
970.5,2001.7,27811.0,3.5957e-05,47.962,55.159,92.336,44.112,75.347,1064.8,0.028258,68.496,0.41136,supercritical,H2O,C7732185,water,647.0,220.64,17.9,0.0558659217877095,1.5,9.072244379985497,0.0006436303
970.5,2009.1,27873.0,3.5877e-05,47.936,55.144,92.293,44.12,75.31,1066.9,0.027983,68.607,0.41234,supercritical,H2O,C7732185,water,647.0,220.64,17.9,0.0558659217877095,1.5,9.105783176214649,0.0006421983
970.5,2016.4,27934.0,3.5799e-05,47.91,55.128,92.25,44.128,75.273,1068.9,0.027711,68.717,0.41331,supercritical,H2O,C7732185,water,647.0,220.64,17.9,0.0558659217877095,1.5,9.13886874546773,0.0006408020999999999
970.5,2023.8,27994.0,3.5721e-05,47.884,55.113,92.207,44.136,75.235,1071.0,0.027442,68.828,0.41427,supercritical,H2O,C7732185,water,647.0,220.64,17.9,0.0558659217877095,1.5,9.172407541696883,0.0006394059
970.5,2031.1,28055.0,3.5644e-05,47.858,55.098,92.164,44.144,75.198,1073.0,0.027175,68.938,0.41524,supercritical,H2O,C7732185,water,647.0,220.64,17.9,0.0558659217877095,1.5,9.205493110949964,0.0006380276
970.5,2038.5,28115.0,3.5568e-05,47.833,55.083,92.122,44.151,75.161,1075.0,0.026911,69.048,0.4162,supercritical,H2O,C7732185,water,647.0,220.64,17.9,0.0558659217877095,1.5,9.239031907179116,0.0006366672
970.5,2045.8,28175.0,3.5492e-05,47.807,55.068,92.08,44.159,75.124,1077.1,0.026649,69.158,0.41716,supercritical,H2O,C7732185,water,647.0,220.64,17.9,0.0558659217877095,1.5,9.272117476432198,0.0006353067999999999
970.5,2053.2,28235.0,3.5417e-05,47.782,55.054,92.038,44.167,75.088,1079.1,0.026389,69.268,0.41812,supercritical,H2O,C7732185,water,647.0,220.64,17.9,0.0558659217877095,1.5,9.305656272661349,0.0006339643
970.5,2060.5,28294.0,3.5343e-05,47.757,55.039,91.996,44.174,75.051,1081.1,0.026132,69.378,0.41907,supercritical,H2O,C7732185,water,647.0,220.64,17.9,0.0558659217877095,1.5,9.338741841914432,0.0006326396999999999
970.5,2067.9,28353.0,3.5269e-05,47.732,55.025,91.955,44.182,75.014,1083.1,0.025877,69.487,0.42003,supercritical,H2O,C7732185,water,647.0,220.64,17.9,0.0558659217877095,1.5,9.372280638143584,0.0006313151
970.5,2075.2,28412.0,3.5196e-05,47.707,55.011,91.913,44.19,74.977,1085.2,0.025625,69.596,0.42098,supercritical,H2O,C7732185,water,647.0,220.64,17.9,0.0558659217877095,1.5,9.405366207396664,0.0006300084
970.5,2082.6,28471.0,3.5124e-05,47.682,54.997,91.872,44.197,74.941,1087.2,0.025374,69.705,0.42193,supercritical,H2O,C7732185,water,647.0,220.64,17.9,0.0558659217877095,1.5,9.438905003625816,0.0006287195999999999
970.5,2089.9,28529.0,3.5052e-05,47.657,54.983,91.831,44.205,74.904,1089.2,0.025126,69.813,0.42287,supercritical,H2O,C7732185,water,647.0,220.64,17.9,0.0558659217877095,1.5,9.471990572878898,0.0006274308000000001
970.5,2097.3,28587.0,3.498e-05,47.633,54.969,91.791,44.212,74.867,1091.2,0.02488,69.922,0.42381,supercritical,H2O,C7732185,water,647.0,220.64,17.9,0.0558659217877095,1.5,9.50552936910805,0.000626142