Temperature (K),Pressure (bar),Density (mol/m3),Volume (m3/mol),Internal Energy (kJ/mol),Enthalpy (kJ/mol),Entropy (J/mol*K),Cv (J/mol*K),Cp (J/mol*K),Sound Spd. (m/s),Joule-Thomson (K/bar),Viscosity (uPa*s),Therm. Cond. (W/m*K),Phase,substance,substance_id,substance_name,Tc,Pc,rhoc,Vmc,Tr,Pr,Vmr
1358.7,2986.4,22928.0,4.3616e-05,66.778,79.804,110.35,43.406,61.69,1216.5,0.01066,,,supercritical,H2O,C7732185,water,647.0,220.64,17.9,0.0558659217877095,2.1,13.535170413343003,0.0007807264
1358.7,2993.8,22967.0,4.3541e-05,66.763,79.799,110.33,43.414,61.698,1217.7,0.01056,,,supercritical,H2O,C7732185,water,647.0,220.64,17.9,0.0558659217877095,2.1,13.568709209572155,0.0007793839
1358.7,3001.1,23006.0,4.3467e-05,66.749,79.794,110.3,43.422,61.706,1218.9,0.010459,,,supercritical,H2O,C7732185,water,647.0,220.64,17.9,0.0558659217877095,2.1,13.601794778825235,0.0007780593
1358.7,3008.5,23045.0,4.3394e-05,66.734,79.789,110.27,43.43,61.713,1220.1,0.01036,,,supercritical,H2O,C7732185,water,647.0,220.64,17.9,0.0558659217877095,2.1,13.635333575054387,0.0007767525999999999
1358.7,3015.8,23084.0,4.3321e-05,66.72,79.785,110.25,43.437,61.721,1221.2,0.01026,,,supercritical,H2O,C7732185,water,647.0,220.64,17.9,0.0558659217877095,2.1,13.668419144307471,0.0007754458999999999
1358.7,3023.2,23122.0,4.3248e-05,66.705,79.78,110.22,43.445,61.729,1222.4,0.010162,,,supercritical,H2O,C7732185,water,647.0,220.64,17.9,0.0558659217877095,2.1,13.701957940536621,0.0007741392
1358.7,3030.5,23161.0,4.3176e-05,66.691,79.775,110.19,43.453,61.736,1223.6,0.010063,,,supercritical,H2O,C7732185,water,647.0,220.64,17.9,0.0558659217877095,2.1,13.735043509789703,0.0007728504
1358.7,3037.9,23200.0,4.3104e-05,66.676,79.771,110.17,43.461,61.744,1224.8,0.0099657,,,supercritical,H2O,C7732185,water,647.0,220.64,17.9,0.0558659217877095,2.1,13.768582306018855,0.0007715615999999999
1358.7,3045.2,23238.0,4.3032e-05,66.662,79.766,110.14,43.468,61.751,1226.0,0.0098685,,,supercritical,H2O,C7732185,water,647.0,220.64,17.9,0.0558659217877095,2.1,13.801667875271937,0.0007702727999999999
1358.7,3052.6,23277.0,4.2961e-05,66.648,79.762,110.11,43.476,61.759,1227.2,0.0097717,,,supercritical,H2O,C7732185,water,647.0,220.64,17.9,0.0558659217877095,2.1,13.835206671501089,0.0007690018999999999
1358.7,3059.9,23315.0,4.289e-05,66.633,79.757,110.09,43.484,61.766,1228.3,0.0096754,,,supercritical,H2O,C7732185,water,647.0,220.64,17.9,0.0558659217877095,2.1,13.86829224075417,0.0007677309999999999
1358.7,3067.3,23354.0,4.282e-05,66.619,79.753,110.06,43.492,61.774,1229.5,0.0095796,,,supercritical,H2O,C7732185,water,647.0,220.64,17.9,0.0558659217877095,2.1,13.901831036983323,0.0007664779999999999
1358.7,3074.6,23392.0,4.275e-05,66.605,79.749,110.03,43.499,61.781,1230.7,0.0094843,,,supercritical,H2O,C7732185,water,647.0,220.64,17.9,0.0558659217877095,2.1,13.934916606236404,0.000765225
1358.7,3082.0,23430.0,4.268e-05,66.591,79.744,110.01,43.507,61.788,1231.9,0.0093894,,,supercritical,H2O,C7732185,water,647.0,220.64,17.9,0.0558659217877095,2.1,13.968455402465555,0.0007639719999999999
1358.7,3089.3,23468.0,4.261e-05,66.577,79.74,109.98,43.515,61.796,1233.1,0.0092951,,,supercritical,H2O,C7732185,water,647.0,220.64,17.9,0.0558659217877095,2.1,14.001540971718638,0.0007627189999999999
1358.7,3096.6,23506.0,4.2541e-05,66.562,79.736,109.96,43.522,61.803,1234.2,0.0092012,,,supercritical,H2O,C7732185,water,647.0,220.64,17.9,0.0558659217877095,2.1,14.034626540971718,0.0007614839
1358.7,3104.0,23544.0,4.2473e-05,66.548,79.732,109.93,43.53,61.81,1235.4,0.0091077,,,supercritical,H2O,C7732185,water,647.0,220.64,17.9,0.0558659217877095,2.1,14.06816533720087,0.0007602666999999999
1358.7,3111.3,23582.0,4.2405e-05,66.534,79.728,109.9,43.537,61.817,1236.6,0.0090148,,,supercritical,H2O,C7732185,water,647.0,220.64,17.9,0.0558659217877095,2.1,14.101250906453954,0.0007590494999999999
1358.7,3118.7,23620.0,4.2337e-05,66.52,79.724,109.88,43.545,61.824,1237.8,0.0089223,,,supercritical,H2O,C7732185,water,647.0,220.64,17.9,0.0558659217877095,2.1,14.134789702683104,0.0007578322999999999
1358.7,3126.0,23658.0,4.2269e-05,66.506,79.72,109.85,43.552,61.831,1238.9,0.0088303,,,supercritical,H2O,C7732185,water,647.0,220.64,17.9,0.0558659217877095,2.1,14.167875271936186,0.0007566150999999999
1358.7,3133.4,23696.0,4.2202e-05,66.492,79.716,109.83,43.56,61.838,1240.1,0.0087387,,,supercritical,H2O,C7732185,water,647.0,220.64,17.9,0.0558659217877095,2.1,14.201414068165338,0.0007554158
1358.7,3140.7,23733.0,4.2135e-05,66.478,79.712,109.8,43.568,61.845,1241.3,0.0086476,,,supercritical,H2O,C7732185,water,647.0,220.64,17.9,0.0558659217877095,2.1,14.23449963741842,0.0007542165
1358.7,3148.1,23771.0,4.2068e-05,66.464,79.708,109.77,43.575,61.852,1242.5,0.008557,,,supercritical,H2O,C7732185,water,647.0,220.64,17.9,0.0558659217877095,2.1,14.268038433647572,0.0007530171999999999
1358.7,3155.4,23808.0,4.2002e-05,66.45,79.704,109.75,43.582,61.858,1243.6,0.0084668,,,supercritical,H2O,C7732185,water,647.0,220.64,17.9,0.0558659217877095,2.1,14.301124002900654,0.0007518358
1358.7,3162.8,23846.0,4.1936e-05,66.437,79.7,109.72,43.59,61.865,1244.8,0.008377,,,supercritical,H2O,C7732185,water,647.0,220.64,17.9,0.0558659217877095,2.1,14.334662799129806,0.0007506543999999999
1358.7,3170.1,23883.0,4.1871e-05,66.423,79.696,109.7,43.597,61.872,1246.0,0.0082877,,,supercritical,H2O,C7732185,water,647.0,220.64,17.9,0.0558659217877095,2.1,14.367748368382887,0.0007494909
1358.7,3177.5,23920.0,4.1806e-05,66.409,79.693,109.67,43.605,61.878,1247.1,0.0081989,,,supercritical,H2O,C7732185,water,647.0,220.64,17.9,0.0558659217877095,2.1,14.401287164612038,0.0007483273999999999
1358.7,3184.8,23957.0,4.1741e-05,66.395,79.689,109.65,43.612,61.885,1248.3,0.0081105,,,supercritical,H2O,C7732185,water,647.0,220.64,17.9,0.0558659217877095,2.1,14.434372733865121,0.0007471638999999999
1358.7,3192.2,23995.0,4.1676e-05,66.381,79.685,109.62,43.62,61.892,1249.5,0.0080225,,,supercritical,H2O,C7732185,water,647.0,220.64,17.9,0.0558659217877095,2.1,14.467911530094272,0.0007460004
1358.7,3199.5,24032.0,4.1612e-05,66.368,79.682,109.6,43.627,61.898,1250.6,0.007935,,,supercritical,H2O,C7732185,water,647.0,220.64,17.9,0.0558659217877095,2.1,14.500997099347353,0.0007448547999999999
1358.7,3206.9,24069.0,4.1548e-05,66.354,79.678,109.57,43.634,61.905,1251.8,0.007848,,,supercritical,H2O,C7732185,water,647.0,220.64,17.9,0.0558659217877095,2.1,14.534535895576505,0.0007437092
1358.7,3214.2,24105.0,4.1484e-05,66.34,79.674,109.55,43.642,61.911,1253.0,0.0077613,,,supercritical,H2O,C7732185,water,647.0,220.64,17.9,0.0558659217877095,2.1,14.567621464829587,0.0007425635999999999
1358.7,3221.6,24142.0,4.1421e-05,66.327,79.671,109.52,43.649,61.918,1254.1,0.0076751,,,supercritical,H2O,C7732185,water,647.0,220.64,17.9,0.0558659217877095,2.1,14.60116026105874,0.0007414359
1358.7,3228.9,24179.0,4.1358e-05,66.313,79.667,109.5,43.657,61.924,1255.3,0.0075893,,,supercritical,H2O,C7732185,water,647.0,220.64,17.9,0.0558659217877095,2.1,14.634245830311821,0.0007403081999999999
1358.7,3236.3,24216.0,4.1296e-05,66.3,79.664,109.47,43.664,61.93,1256.5,0.007504,,,supercritical,H2O,C7732185,water,647.0,220.64,17.9,0.0558659217877095,2.1,14.667784626540973,0.0007391984
1358.7,3243.6,24252.0,4.1233e-05,66.286,79.661,109.45,43.671,61.937,1257.6,0.0074191,,,supercritical,H2O,C7732185,water,647.0,220.64,17.9,0.0558659217877095,2.1,14.700870195794055,0.0007380707
1358.7,3251.0,24289.0,4.1171e-05,66.273,79.657,109.42,43.678,61.943,1258.8,0.0073346,,,supercritical,H2O,C7732185,water,647.0,220.64,17.9,0.0558659217877095,2.1,14.734408992023207,0.0007369609
1358.7,3258.3,24325.0,4.1109e-05,66.259,79.654,109.4,43.686,61.949,1259.9,0.0072505,,,supercritical,H2O,C7732185,water,647.0,220.64,17.9,0.0558659217877095,2.1,14.767494561276289,0.0007358511
1358.7,3265.7,24362.0,4.1048e-05,66.246,79.651,109.37,43.693,61.955,1261.1,0.0071668,,,supercritical,H2O,C7732185,water,647.0,220.64,17.9,0.0558659217877095,2.1,14.801033357505439,0.0007347591999999999
1358.7,3273.0,24398.0,4.0987e-05,66.232,79.647,109.35,43.7,61.961,1262.2,0.0070836,,,supercritical,H2O,C7732185,water,647.0,220.64,17.9,0.0558659217877095,2.1,14.83411892675852,0.0007336672999999999
1358.7,3280.4,24434.0,4.0926e-05,66.219,79.644,109.32,43.707,61.968,1263.4,0.0070008,,,supercritical,H2O,C7732185,water,647.0,220.64,17.9,0.0558659217877095,2.1,14.867657722987673,0.0007325754
1358.7,3287.7,24471.0,4.0865e-05,66.206,79.641,109.3,43.715,61.974,1264.6,0.0069184,,,supercritical,H2O,C7732185,water,647.0,220.64,17.9,0.0558659217877095,2.1,14.900743292240755,0.0007314835
1358.7,3295.1,24507.0,4.0805e-05,66.192,79.638,109.27,43.722,61.98,1265.7,0.0068364,,,supercritical,H2O,C7732185,water,647.0,220.64,17.9,0.0558659217877095,2.1,14.934282088469907,0.0007304095
1358.7,3302.4,24543.0,4.0745e-05,66.179,79.635,109.25,43.729,61.986,1266.9,0.0067548,,,supercritical,H2O,C7732185,water,647.0,220.64,17.9,0.0558659217877095,2.1,14.967367657722988,0.0007293354999999999
1358.7,3309.7,24579.0,4.0686e-05,66.166,79.632,109.23,43.736,61.992,1268.0,0.0066736,,,supercritical,H2O,C7732185,water,647.0,220.64,17.9,0.0558659217877095,2.1,15.00045322697607,0.0007282794
1358.7,3317.1,24615.0,4.0626e-05,66.153,79.629,109.2,43.743,61.997,1269.2,0.0065928,,,supercritical,H2O,C7732185,water,647.0,220.64,17.9,0.0558659217877095,2.1,15.033992023205222,0.0007272054
1358.7,3324.4,24650.0,4.0567e-05,66.139,79.626,109.18,43.75,62.003,1270.3,0.0065124,,,supercritical,H2O,C7732185,water,647.0,220.64,17.9,0.0558659217877095,2.1,15.067077592458304,0.0007261492999999999
1358.7,3331.8,24686.0,4.0508e-05,66.126,79.623,109.15,43.758,62.009,1271.5,0.0064324,,,supercritical,H2O,C7732185,water,647.0,220.64,17.9,0.0558659217877095,2.1,15.100616388687456,0.0007250932
1358.7,3339.1,24722.0,4.045e-05,66.113,79.62,109.13,43.765,62.015,1272.6,0.0063529,,,supercritical,H2O,C7732185,water,647.0,220.64,17.9,0.0558659217877095,2.1,15.133701957940538,0.0007240549999999999
1358.7,3346.5,24758.0,4.0392e-05,66.1,79.617,109.11,43.772,62.021,1273.8,0.0062737,,,supercritical,H2O,C7732185,water,647.0,220.64,17.9,0.0558659217877095,2.1,15.16724075416969,0.0007230168
1358.7,3353.8,24793.0,4.0334e-05,66.087,79.614,109.08,43.779,62.027,1274.9,0.0061949,,,supercritical,H2O,C7732185,water,647.0,220.64,17.9,0.0558659217877095,2.1,15.200326323422772,0.0007219786
1358.7,3361.2,24829.0,4.0276e-05,66.074,79.611,109.06,43.786,62.032,1276.1,0.0061164,,,supercritical,H2O,C7732185,water,647.0,220.64,17.9,0.0558659217877095,2.1,15.233865119651922,0.0007209403999999999
1358.7,3368.5,24864.0,4.0218e-05,66.061,79.609,109.03,43.793,62.038,1277.2,0.0060384,,,supercritical,H2O,C7732185,water,647.0,220.64,17.9,0.0558659217877095,2.1,15.266950688905004,0.0007199022
1358.7,3375.9,24900.0,4.0161e-05,66.048,79.606,109.01,43.8,62.044,1278.4,0.0059608,,,supercritical,H2O,C7732185,water,647.0,220.64,17.9,0.0558659217877095,2.1,15.300489485134156,0.0007188818999999999
1358.7,3383.2,24935.0,4.0104e-05,66.035,79.603,108.99,43.807,62.049,1279.5,0.0058835,,,supercritical,H2O,C7732185,water,647.0,220.64,17.9,0.0558659217877095,2.1,15.333575054387238,0.0007178616
1358.7,3390.6,24970.0,4.0048e-05,66.022,79.6,108.96,43.814,62.055,1280.6,0.0058066,,,supercritical,H2O,C7732185,water,647.0,220.64,17.9,0.0558659217877095,2.1,15.36711385061639,0.0007168592
1358.7,3397.9,25005.0,3.9991e-05,66.009,79.598,108.94,43.821,62.06,1281.8,0.0057301,,,supercritical,H2O,C7732185,water,647.0,220.64,17.9,0.0558659217877095,2.1,15.400199419869471,0.0007158388999999999
1358.7,3405.3,25041.0,3.9935e-05,65.996,79.595,108.92,43.828,62.066,1282.9,0.005654,,,supercritical,H2O,C7732185,water,647.0,220.64,17.9,0.0558659217877095,2.1,15.433738216098623,0.0007148365
1358.7,3412.6,25076.0,3.9879e-05,65.983,79.593,108.89,43.835,62.071,1284.1,0.0055783,,,supercritical,H2O,C7732185,water,647.0,220.64,17.9,0.0558659217877095,2.1,15.466823785351705,0.0007138341
1358.7,3420.0,25111.0,3.9824e-05,65.97,79.59,108.87,43.842,62.077,1285.2,0.0055029,,,supercritical,H2O,C7732185,water,647.0,220.64,17.9,0.0558659217877095,2.1,15.500362581580857,0.0007128495999999999
1358.7,3427.3,25146.0,3.9769e-05,65.958,79.588,108.85,43.849,62.082,1286.3,0.0054279,,,supercritical,H2O,C7732185,water,647.0,220.64,17.9,0.0558659217877095,2.1,15.533448150833939,0.0007118650999999999
1358.7,3434.7,25180.0,3.9713e-05,65.945,79.585,108.82,43.856,62.087,1287.5,0.0053532,,,supercritical,H2O,C7732185,water,647.0,220.64,17.9,0.0558659217877095,2.1,15.56698694706309,0.0007108627
1358.7,3442.0,25215.0,3.9659e-05,65.932,79.583,108.8,43.863,62.093,1288.6,0.005279,,,supercritical,H2O,C7732185,water,647.0,220.64,17.9,0.0558659217877095,2.1,15.600072516316173,0.0007098960999999999
1358.7,3449.4,25250.0,3.9604e-05,65.919,79.58,108.78,43.87,62.098,1289.7,0.0052051,,,supercritical,H2O,C7732185,water,647.0,220.64,17.9,0.0558659217877095,2.1,15.633611312545325,0.0007089116
1358.7,3456.7,25285.0,3.955e-05,65.907,79.578,108.75,43.877,62.103,1290.9,0.0051315,,,supercritical,H2O,C7732185,water,647.0,220.64,17.9,0.0558659217877095,2.1,15.666696881798405,0.000707945
1358.7,3464.1,25319.0,3.9496e-05,65.894,79.576,108.73,43.883,62.109,1292.0,0.0050583,,,supercritical,H2O,C7732185,water,647.0,220.64,17.9,0.0558659217877095,2.1,15.700235678027557,0.0007069784
1358.7,3471.4,25354.0,3.9442e-05,65.881,79.573,108.71,43.89,62.114,1293.1,0.0049855,,,supercritical,H2O,C7732185,water,647.0,220.64,17.9,0.0558659217877095,2.1,15.733321247280639,0.0007060117999999999
1358.7,3478.8,25388.0,3.9388e-05,65.869,79.571,108.68,43.897,62.119,1294.3,0.004913,,,supercritical,H2O,C7732185,water,647.0,220.64,17.9,0.0558659217877095,2.1,15.76686004350979,0.0007050452
1358.7,3486.1,25423.0,3.9335e-05,65.856,79.569,108.66,43.904,62.124,1295.4,0.0048409,,,supercritical,H2O,C7732185,water,647.0,220.64,17.9,0.0558659217877095,2.1,15.799945612762873,0.0007040965
1358.7,3493.5,25457.0,3.9282e-05,65.844,79.567,108.64,43.911,62.129,1296.5,0.0047691,,,supercritical,H2O,C7732185,water,647.0,220.64,17.9,0.0558659217877095,2.1,15.833484408992025,0.0007031477999999999
1358.7,3500.8,25491.0,3.9229e-05,65.831,79.565,108.61,43.918,62.134,1297.6,0.0046977,,,supercritical,H2O,C7732185,water,647.0,220.64,17.9,0.0558659217877095,2.1,15.866569978245106,0.0007021991
1358.7,3508.2,25526.0,3.9176e-05,65.819,79.562,108.59,43.924,62.14,1298.8,0.0046266,,,supercritical,H2O,C7732185,water,647.0,220.64,17.9,0.0558659217877095,2.1,15.900108774474257,0.0007012504
1358.7,3515.5,25560.0,3.9124e-05,65.806,79.56,108.57,43.931,62.145,1299.9,0.0045558,,,supercritical,H2O,C7732185,water,647.0,220.64,17.9,0.0558659217877095,2.1,15.93319434372734,0.0007003195999999999
1358.7,3522.9,25594.0,3.9072e-05,65.794,79.558,108.55,43.938,62.15,1301.0,0.0044854,,,supercritical,H2O,C7732185,water,647.0,220.64,17.9,0.0558659217877095,2.1,15.966733139956492,0.0006993888
1358.7,3530.2,25628.0,3.902e-05,65.781,79.556,108.52,43.945,62.155,1302.1,0.0044154,,,supercritical,H2O,C7732185,water,647.0,220.64,17.9,0.0558659217877095,2.1,15.999818709209572,0.000698458
1358.7,3537.5,25662.0,3.8968e-05,65.769,79.554,108.5,43.952,62.16,1303.3,0.0043457,,,supercritical,H2O,C7732185,water,647.0,220.64,17.9,0.0558659217877095,2.1,16.032904278462656,0.0006975271999999999
1358.7,3544.9,25696.0,3.8917e-05,65.757,79.552,108.48,43.958,62.164,1304.4,0.0042763,,,supercritical,H2O,C7732185,water,647.0,220.64,17.9,0.0558659217877095,2.1,16.066443074691808,0.0006966142999999999
1358.7,3552.2,25730.0,3.8866e-05,65.744,79.55,108.46,43.965,62.169,1305.5,0.0042072,,,supercritical,H2O,C7732185,water,647.0,220.64,17.9,0.0558659217877095,2.1,16.099528643944886,0.0006957013999999999
1358.7,3559.6,25764.0,3.8815e-05,65.732,79.548,108.43,43.972,62.174,1306.6,0.0041385,,,supercritical,H2O,C7732185,water,647.0,220.64,17.9,0.0558659217877095,2.1,16.133067440174038,0.0006947885
1358.7,3566.9,25797.0,3.8764e-05,65.72,79.547,108.41,43.978,62.179,1307.7,0.0040701,,,supercritical,H2O,C7732185,water,647.0,220.64,17.9,0.0558659217877095,2.1,16.166153009427124,0.0006938755999999999
1358.7,3574.3,25831.0,3.8713e-05,65.707,79.545,108.39,43.985,62.184,1308.9,0.004002,,,supercritical,H2O,C7732185,water,647.0,220.64,17.9,0.0558659217877095,2.1,16.199691805656276,0.0006929627
1358.7,3581.6,25865.0,3.8663e-05,65.695,79.543,108.37,43.992,62.189,1310.0,0.0039343,,,supercritical,H2O,C7732185,water,647.0,220.64,17.9,0.0558659217877095,2.1,16.232777374909354,0.0006920676999999999
1358.7,3589.0,25898.0,3.8613e-05,65.683,79.541,108.35,43.999,62.193,1311.1,0.0038669,,,supercritical,H2O,C7732185,water,647.0,220.64,17.9,0.0558659217877095,2.1,16.266316171138506,0.0006911726999999999
1358.7,3596.3,25932.0,3.8563e-05,65.671,79.539,108.32,44.005,62.198,1312.2,0.0037998,,,supercritical,H2O,C7732185,water,647.0,220.64,17.9,0.0558659217877095,2.1,16.29940174039159,0.0006902777
1358.7,3603.7,25965.0,3.8513e-05,65.659,79.538,108.3,44.012,62.203,1313.3,0.003733,,,supercritical,H2O,C7732185,water,647.0,220.64,17.9,0.0558659217877095,2.1,16.33294053662074,0.0006893827
1358.7,3611.0,25999.0,3.8464e-05,65.647,79.536,108.28,44.018,62.208,1314.4,0.0036666,,,supercritical,H2O,C7732185,water,647.0,220.64,17.9,0.0558659217877095,2.1,16.36602610587382,0.0006885056
1358.7,3618.4,26032.0,3.8414e-05,65.634,79.534,108.26,44.025,62.212,1315.5,0.0036004,,,supercritical,H2O,C7732185,water,647.0,220.64,17.9,0.0558659217877095,2.1,16.399564902102973,0.0006876105999999999
1358.7,3625.7,26065.0,3.8365e-05,65.622,79.533,108.23,44.032,62.217,1316.6,0.0035346,,,supercritical,H2O,C7732185,water,647.0,220.64,17.9,0.0558659217877095,2.1,16.432650471356055,0.0006867335
1358.7,3633.1,26098.0,3.8317e-05,65.61,79.531,108.21,44.038,62.221,1317.7,0.0034691,,,supercritical,H2O,C7732185,water,647.0,220.64,17.9,0.0558659217877095,2.1,16.466189267585207,0.0006858742999999999
1358.7,3640.4,26132.0,3.8268e-05,65.598,79.529,108.19,44.045,62.226,1318.8,0.0034039,,,supercritical,H2O,C7732185,water,647.0,220.64,17.9,0.0558659217877095,2.1,16.49927483683829,0.0006849972
1358.7,3647.8,26165.0,3.8219e-05,65.586,79.528,108.17,44.051,62.231,1320.0,0.0033389,,,supercritical,H2O,C7732185,water,647.0,220.64,17.9,0.0558659217877095,2.1,16.53281363306744,0.0006841201
1358.7,3655.1,26198.0,3.8171e-05,65.574,79.526,108.15,44.058,62.235,1321.1,0.0032744,,,supercritical,H2O,C7732185,water,647.0,220.64,17.9,0.0558659217877095,2.1,16.565899202320523,0.0006832608999999999
1358.7,3662.5,26231.0,3.8123e-05,65.562,79.525,108.13,44.065,62.24,1322.2,0.0032101,,,supercritical,H2O,C7732185,water,647.0,220.64,17.9,0.0558659217877095,2.1,16.599437998549675,0.0006824016999999999
1358.7,3669.8,26264.0,3.8075e-05,65.55,79.523,108.1,44.071,62.244,1323.3,0.0031461,,,supercritical,H2O,C7732185,water,647.0,220.64,17.9,0.0558659217877095,2.1,16.632523567802757,0.0006815424999999999
1358.7,3677.2,26296.0,3.8028e-05,65.539,79.522,108.08,44.078,62.248,1324.4,0.0030824,,,supercritical,H2O,C7732185,water,647.0,220.64,17.9,0.0558659217877095,2.1,16.66606236403191,0.0006807012
1358.7,3684.5,26329.0,3.798e-05,65.527,79.521,108.06,44.084,62.253,1325.5,0.003019,,,supercritical,H2O,C7732185,water,647.0,220.64,17.9,0.0558659217877095,2.1,16.69914793328499,0.000679842
1358.7,3691.9,26362.0,3.7933e-05,65.515,79.519,108.04,44.091,62.257,1326.6,0.0029559,,,supercritical,H2O,C7732185,water,647.0,220.64,17.9,0.0558659217877095,2.1,16.732686729514143,0.0006790006999999999
1358.7,3699.2,26395.0,3.7886e-05,65.503,79.518,108.02,44.097,62.262,1327.7,0.0028931,,,supercritical,H2O,C7732185,water,647.0,220.64,17.9,0.0558659217877095,2.1,16.765772298767224,0.0006781594
1358.7,3706.6,26427.0,3.7839e-05,65.491,79.517,108.0,44.104,62.266,1328.8,0.0028306,,,supercritical,H2O,C7732185,water,647.0,220.64,17.9,0.0558659217877095,2.1,16.799311094996376,0.0006773181
1358.7,3713.9,26460.0,3.7793e-05,65.479,79.515,107.97,44.11,62.27,1329.9,0.0027683,,,supercritical,H2O,C7732185,water,647.0,220.64,17.9,0.0558659217877095,2.1,16.83239666424946,0.0006764946999999999