Temperature (K),Pressure (bar),Density (mol/m3),Volume (m3/mol),Internal Energy (kJ/mol),Enthalpy (kJ/mol),Entropy (J/mol*K),Cv (J/mol*K),Cp (J/mol*K),Sound Spd. (m/s),Joule-Thomson (K/bar),Viscosity (uPa*s),Therm. Cond. (W/m*K),Phase,substance,substance_id,substance_name,Tc,Pc,rhoc,Vmc,Tr,Pr,Vmr
547.52,227.17,5283.3,0.00018927,26.051,30.35,97.045,39.589,56.742,375.11,0.15821,30.992,0.046694,supercritical,CO2,C124389,carbon-dioxide,304.18,73.8,10.6,0.09433962264150944,1.8,3.0781842818428182,0.002006262
547.52,229.62,5340.2,0.00018726,26.028,30.328,96.92,39.606,56.844,375.68,0.15706,31.079,0.046835,supercritical,CO2,C124389,carbon-dioxide,304.18,73.8,10.6,0.09433962264150944,1.8,3.1113821138211386,0.001984956
547.52,232.08,5396.9,0.00018529,26.006,30.306,96.797,39.622,56.945,376.26,0.1559,31.166,0.046977,supercritical,CO2,C124389,carbon-dioxide,304.18,73.8,10.6,0.09433962264150944,1.8,3.144715447154472,0.001964074
547.52,234.54,5453.6,0.00018337,25.984,30.285,96.674,39.638,57.045,376.85,0.15475,31.254,0.04712,supercritical,CO2,C124389,carbon-dioxide,304.18,73.8,10.6,0.09433962264150944,1.8,3.178048780487805,0.001943722
547.52,237.0,5510.2,0.00018148,25.962,30.263,96.553,39.653,57.145,377.45,0.1536,31.342,0.047263,supercritical,CO2,C124389,carbon-dioxide,304.18,73.8,10.6,0.09433962264150944,1.8,3.2113821138211383,0.001923688
547.52,239.46,5566.6,0.00017964,25.94,30.242,96.432,39.669,57.244,378.05,0.15245,31.432,0.047407,supercritical,CO2,C124389,carbon-dioxide,304.18,73.8,10.6,0.09433962264150944,1.8,3.244715447154472,0.001904184
547.52,241.92,5622.9,0.00017784,25.918,30.22,96.313,39.685,57.341,378.66,0.1513,31.522,0.047551,supercritical,CO2,C124389,carbon-dioxide,304.18,73.8,10.6,0.09433962264150944,1.8,3.2780487804878047,0.0018851039999999999
547.52,244.37,5679.2,0.00017608,25.896,30.199,96.195,39.7,57.439,379.28,0.15016,31.612,0.047696,supercritical,CO2,C124389,carbon-dioxide,304.18,73.8,10.6,0.09433962264150944,1.8,3.311246612466125,0.001866448
547.52,246.83,5735.3,0.00017436,25.874,30.178,96.077,39.716,57.535,379.9,0.14901,31.703,0.047842,supercritical,CO2,C124389,carbon-dioxide,304.18,73.8,10.6,0.09433962264150944,1.8,3.3445799457994583,0.001848216
547.52,249.29,5791.3,0.00017267,25.852,30.157,95.961,39.731,57.63,380.53,0.14787,31.795,0.047989,supercritical,CO2,C124389,carbon-dioxide,304.18,73.8,10.6,0.09433962264150944,1.8,3.3779132791327915,0.001830302
547.52,251.75,5847.2,0.00017102,25.83,30.136,95.846,39.746,57.725,381.17,0.14674,31.888,0.048136,supercritical,CO2,C124389,carbon-dioxide,304.18,73.8,10.6,0.09433962264150944,1.8,3.4112466124661247,0.0018128119999999998
547.52,254.21,5903.0,0.00016941,25.809,30.115,95.731,39.761,57.819,381.82,0.1456,31.981,0.048283,supercritical,CO2,C124389,carbon-dioxide,304.18,73.8,10.6,0.09433962264150944,1.8,3.4445799457994584,0.0017957459999999998
547.52,256.67,5958.6,0.00016782,25.787,30.094,95.618,39.776,57.911,382.48,0.14447,32.075,0.048431,supercritical,CO2,C124389,carbon-dioxide,304.18,73.8,10.6,0.09433962264150944,1.8,3.4779132791327916,0.0017788919999999998
547.52,259.12,6014.2,0.00016627,25.765,30.074,95.506,39.79,58.003,383.14,0.14334,32.169,0.04858,supercritical,CO2,C124389,carbon-dioxide,304.18,73.8,10.6,0.09433962264150944,1.8,3.5111111111111115,0.0017624619999999998
547.52,261.58,6069.6,0.00016476,25.744,30.054,95.394,39.805,58.095,383.81,0.14221,32.264,0.048729,supercritical,CO2,C124389,carbon-dioxide,304.18,73.8,10.6,0.09433962264150944,1.8,3.5444444444444443,0.0017464559999999997
547.52,264.04,6124.9,0.00016327,25.722,30.033,95.283,39.82,58.185,384.49,0.14109,32.36,0.048879,supercritical,CO2,C124389,carbon-dioxide,304.18,73.8,10.6,0.09433962264150944,1.8,3.5777777777777784,0.0017306619999999998
547.52,266.5,6180.0,0.00016181,25.701,30.013,95.174,39.834,58.274,385.17,0.13997,32.456,0.049029,supercritical,CO2,C124389,carbon-dioxide,304.18,73.8,10.6,0.09433962264150944,1.8,3.611111111111111,0.0017151859999999998
547.52,268.96,6235.0,0.00016038,25.68,29.993,95.065,39.848,58.363,385.86,0.13885,32.553,0.04918,supercritical,CO2,C124389,carbon-dioxide,304.18,73.8,10.6,0.09433962264150944,1.8,3.6444444444444444,0.001700028
547.52,271.42,6289.9,0.00015898,25.658,29.973,94.957,39.862,58.45,386.56,0.13774,32.65,0.049331,supercritical,CO2,C124389,carbon-dioxide,304.18,73.8,10.6,0.09433962264150944,1.8,3.677777777777778,0.0016851879999999998
547.52,273.87,6344.7,0.00015761,25.637,29.954,94.85,39.876,58.537,387.26,0.13663,32.748,0.049482,supercritical,CO2,C124389,carbon-dioxide,304.18,73.8,10.6,0.09433962264150944,1.8,3.710975609756098,0.001670666
547.52,276.33,6399.3,0.00015627,25.616,29.934,94.744,39.89,58.623,387.97,0.13553,32.847,0.049635,supercritical,CO2,C124389,carbon-dioxide,304.18,73.8,10.6,0.09433962264150944,1.8,3.7443089430894307,0.0016564619999999998
547.52,278.79,6453.7,0.00015495,25.595,29.915,94.638,39.904,58.708,388.69,0.13443,32.946,0.049787,supercritical,CO2,C124389,carbon-dioxide,304.18,73.8,10.6,0.09433962264150944,1.8,3.777642276422765,0.0016424699999999998
547.52,281.25,6508.0,0.00015366,25.574,29.895,94.534,39.918,58.792,389.42,0.13333,33.046,0.04994,supercritical,CO2,C124389,carbon-dioxide,304.18,73.8,10.6,0.09433962264150944,1.8,3.8109756097560976,0.0016287959999999998
547.52,283.71,6562.2,0.00015239,25.553,29.876,94.43,39.931,58.875,390.15,0.13224,33.146,0.050094,supercritical,CO2,C124389,carbon-dioxide,304.18,73.8,10.6,0.09433962264150944,1.8,3.844308943089431,0.0016153339999999997
547.52,286.17,6616.3,0.00015114,25.532,29.857,94.327,39.945,58.957,390.89,0.13115,33.247,0.050247,supercritical,CO2,C124389,carbon-dioxide,304.18,73.8,10.6,0.09433962264150944,1.8,3.8776422764227645,0.0016020839999999997
547.52,288.62,6670.1,0.00014992,25.511,29.838,94.225,39.958,59.039,391.63,0.13007,33.349,0.050402,supercritical,CO2,C124389,carbon-dioxide,304.18,73.8,10.6,0.09433962264150944,1.8,3.9108401084010844,0.001589152
547.52,291.08,6723.9,0.00014872,25.49,29.819,94.123,39.971,59.119,392.38,0.12899,33.451,0.050556,supercritical,CO2,C124389,carbon-dioxide,304.18,73.8,10.6,0.09433962264150944,1.8,3.944173441734417,0.0015764319999999998
547.52,293.54,6777.5,0.00014755,25.469,29.801,94.023,39.985,59.199,393.14,0.12792,33.553,0.050711,supercritical,CO2,C124389,carbon-dioxide,304.18,73.8,10.6,0.09433962264150944,1.8,3.9775067750677513,0.0015640299999999999
547.52,296.0,6830.9,0.00014639,25.449,29.782,93.923,39.998,59.278,393.91,0.12685,33.657,0.050866,supercritical,CO2,C124389,carbon-dioxide,304.18,73.8,10.6,0.09433962264150944,1.8,4.0108401084010845,0.001551734
547.52,298.46,6884.2,0.00014526,25.428,29.764,93.824,40.01,59.355,394.67,0.12578,33.76,0.051022,supercritical,CO2,C124389,carbon-dioxide,304.18,73.8,10.6,0.09433962264150944,1.8,4.044173441734417,0.001539756
547.52,300.92,6937.3,0.00014415,25.408,29.745,93.725,40.023,59.432,395.45,0.12472,33.864,0.051178,supercritical,CO2,C124389,carbon-dioxide,304.18,73.8,10.6,0.09433962264150944,1.8,4.077506775067751,0.00152799
547.52,303.37,6990.3,0.00014306,25.387,29.727,93.628,40.036,59.508,396.23,0.12367,33.969,0.051334,supercritical,CO2,C124389,carbon-dioxide,304.18,73.8,10.6,0.09433962264150944,1.8,4.11070460704607,0.001516436
547.52,305.83,7043.1,0.00014198,25.367,29.709,93.531,40.048,59.583,397.02,0.12262,34.074,0.051491,supercritical,CO2,C124389,carbon-dioxide,304.18,73.8,10.6,0.09433962264150944,1.8,4.144037940379404,0.0015049879999999999
547.52,308.29,7095.7,0.00014093,25.346,29.691,93.434,40.061,59.658,397.81,0.12158,34.18,0.051648,supercritical,CO2,C124389,carbon-dioxide,304.18,73.8,10.6,0.09433962264150944,1.8,4.177371273712738,0.0014938579999999998
547.52,310.75,7148.2,0.0001399,25.326,29.673,93.339,40.073,59.731,398.61,0.12054,34.286,0.051805,supercritical,CO2,C124389,carbon-dioxide,304.18,73.8,10.6,0.09433962264150944,1.8,4.210704607046071,0.00148294
547.52,313.21,7200.5,0.00013888,25.306,29.656,93.244,40.086,59.804,399.42,0.1195,34.393,0.051962,supercritical,CO2,C124389,carbon-dioxide,304.18,73.8,10.6,0.09433962264150944,1.8,4.244037940379403,0.0014721279999999998
547.52,315.67,7252.7,0.00013788,25.286,29.638,93.15,40.098,59.875,400.23,0.11848,34.5,0.05212,supercritical,CO2,C124389,carbon-dioxide,304.18,73.8,10.6,0.09433962264150944,1.8,4.277371273712737,0.001461528
547.52,318.12,7304.6,0.0001369,25.266,29.621,93.057,40.11,59.946,401.05,0.11745,34.608,0.052278,supercritical,CO2,C124389,carbon-dioxide,304.18,73.8,10.6,0.09433962264150944,1.8,4.310569105691057,0.0014511399999999999
547.52,320.58,7356.5,0.00013593,25.246,29.604,92.964,40.122,60.016,401.87,0.11644,34.716,0.052436,supercritical,CO2,C124389,carbon-dioxide,304.18,73.8,10.6,0.09433962264150944,1.8,4.34390243902439,0.001440858
547.52,323.04,7408.1,0.00013499,25.226,29.587,92.872,40.134,60.085,402.7,0.11542,34.825,0.052594,supercritical,CO2,C124389,carbon-dioxide,304.18,73.8,10.6,0.09433962264150944,1.8,4.377235772357724,0.001430894
547.52,325.5,7459.6,0.00013406,25.206,29.57,92.78,40.145,60.153,403.53,0.11442,34.934,0.052753,supercritical,CO2,C124389,carbon-dioxide,304.18,73.8,10.6,0.09433962264150944,1.8,4.410569105691057,0.0014210359999999999
547.52,327.96,7510.9,0.00013314,25.186,29.553,92.69,40.157,60.22,404.37,0.11342,35.044,0.052911,supercritical,CO2,C124389,carbon-dioxide,304.18,73.8,10.6,0.09433962264150944,1.8,4.44390243902439,0.0014112839999999998
547.52,330.42,7562.1,0.00013224,25.167,29.536,92.6,40.169,60.287,405.21,0.11243,35.154,0.05307,supercritical,CO2,C124389,carbon-dioxide,304.18,73.8,10.6,0.09433962264150944,1.8,4.477235772357724,0.001401744
547.52,332.87,7613.0,0.00013135,25.147,29.519,92.51,40.18,60.352,406.06,0.11144,35.264,0.053229,supercritical,CO2,C124389,carbon-dioxide,304.18,73.8,10.6,0.09433962264150944,1.8,4.510433604336043,0.00139231
547.52,335.33,7663.8,0.00013048,25.127,29.503,92.421,40.191,60.417,406.91,0.11045,35.375,0.053388,supercritical,CO2,C124389,carbon-dioxide,304.18,73.8,10.6,0.09433962264150944,1.8,4.543766937669377,0.001383088
547.52,337.79,7714.5,0.00012963,25.108,29.487,92.333,40.203,60.481,407.77,0.10948,35.487,0.053548,supercritical,CO2,C124389,carbon-dioxide,304.18,73.8,10.6,0.09433962264150944,1.8,4.577100271002711,0.0013740779999999997
547.52,340.25,7764.9,0.00012878,25.089,29.47,92.245,40.214,60.544,408.63,0.10851,35.599,0.053707,supercritical,CO2,C124389,carbon-dioxide,304.18,73.8,10.6,0.09433962264150944,1.8,4.610433604336044,0.0013650679999999999
547.52,342.71,7815.2,0.00012796,25.069,29.454,92.158,40.225,60.606,409.5,0.10754,35.711,0.053867,supercritical,CO2,C124389,carbon-dioxide,304.18,73.8,10.6,0.09433962264150944,1.8,4.643766937669376,0.0013563759999999998
547.52,345.17,7865.3,0.00012714,25.05,29.438,92.072,40.236,60.667,410.37,0.10658,35.824,0.054026,supercritical,CO2,C124389,carbon-dioxide,304.18,73.8,10.6,0.09433962264150944,1.8,4.67710027100271,0.001347684
547.52,347.62,7915.2,0.00012634,25.031,29.423,91.986,40.247,60.728,411.25,0.10563,35.937,0.054186,supercritical,CO2,C124389,carbon-dioxide,304.18,73.8,10.6,0.09433962264150944,1.8,4.71029810298103,0.001339204
547.52,350.08,7965.0,0.00012555,25.012,29.407,91.901,40.258,60.788,412.13,0.10468,36.05,0.054346,supercritical,CO2,C124389,carbon-dioxide,304.18,73.8,10.6,0.09433962264150944,1.8,4.743631436314363,0.0013308299999999999
547.52,352.54,8014.5,0.00012477,24.992,29.391,91.816,40.268,60.847,413.02,0.10374,36.164,0.054506,supercritical,CO2,C124389,carbon-dioxide,304.18,73.8,10.6,0.09433962264150944,1.8,4.776964769647697,0.001322562
547.52,355.0,8063.9,0.00012401,24.973,29.376,91.732,40.279,60.905,413.91,0.10281,36.278,0.054666,supercritical,CO2,C124389,carbon-dioxide,304.18,73.8,10.6,0.09433962264150944,1.8,4.81029810298103,0.001314506
547.52,357.46,8113.1,0.00012326,24.955,29.36,91.649,40.289,60.962,414.8,0.10188,36.393,0.054826,supercritical,CO2,C124389,carbon-dioxide,304.18,73.8,10.6,0.09433962264150944,1.8,4.843631436314363,0.001306556
547.52,359.92,8162.2,0.00012252,24.936,29.345,91.566,40.3,61.018,415.7,0.10096,36.508,0.054986,supercritical,CO2,C124389,carbon-dioxide,304.18,73.8,10.6,0.09433962264150944,1.8,4.876964769647697,0.001298712
547.52,362.37,8211.0,0.00012179,24.917,29.33,91.483,40.31,61.074,416.6,0.10004,36.623,0.055146,supercritical,CO2,C124389,carbon-dioxide,304.18,73.8,10.6,0.09433962264150944,1.8,4.910162601626016,0.0012909739999999999
547.52,364.83,8259.7,0.00012107,24.898,29.315,91.401,40.321,61.129,417.51,0.099132,36.739,0.055306,supercritical,CO2,C124389,carbon-dioxide,304.18,73.8,10.6,0.09433962264150944,1.8,4.9434959349593495,0.001283342
547.52,367.29,8308.2,0.00012036,24.88,29.3,91.32,40.331,61.183,418.42,0.098229,36.855,0.055466,supercritical,CO2,C124389,carbon-dioxide,304.18,73.8,10.6,0.09433962264150944,1.8,4.976829268292684,0.001275816
547.52,369.75,8356.5,0.00011967,24.861,29.286,91.239,40.341,61.237,419.33,0.097331,36.972,0.055626,supercritical,CO2,C124389,carbon-dioxide,304.18,73.8,10.6,0.09433962264150944,1.8,5.010162601626017,0.001268502
547.52,372.21,8404.6,0.00011898,24.842,29.271,91.159,40.351,61.289,420.25,0.096439,37.088,0.055786,supercritical,CO2,C124389,carbon-dioxide,304.18,73.8,10.6,0.09433962264150944,1.8,5.043495934959349,0.001261188
547.52,374.67,8452.6,0.00011831,24.824,29.257,91.079,40.361,61.341,421.17,0.095554,37.206,0.055946,supercritical,CO2,C124389,carbon-dioxide,304.18,73.8,10.6,0.09433962264150944,1.8,5.076829268292683,0.001254086
547.52,377.12,8500.3,0.00011764,24.806,29.242,91.0,40.371,61.392,422.1,0.094674,37.323,0.056106,supercritical,CO2,C124389,carbon-dioxide,304.18,73.8,10.6,0.09433962264150944,1.8,5.110027100271003,0.001246984
547.52,379.58,8547.9,0.00011699,24.787,29.228,90.922,40.38,61.442,423.03,0.093801,37.441,0.056266,supercritical,CO2,C124389,carbon-dioxide,304.18,73.8,10.6,0.09433962264150944,1.8,5.143360433604336,0.001240094
547.52,382.04,8595.3,0.00011634,24.769,29.214,90.843,40.39,61.492,423.96,0.092934,37.559,0.056426,supercritical,CO2,C124389,carbon-dioxide,304.18,73.8,10.6,0.09433962264150944,1.8,5.17669376693767,0.001233204
547.52,384.5,8642.6,0.00011571,24.751,29.2,90.766,40.4,61.541,424.9,0.092073,37.677,0.056586,supercritical,CO2,C124389,carbon-dioxide,304.18,73.8,10.6,0.09433962264150944,1.8,5.210027100271003,0.001226526
547.52,386.96,8689.6,0.00011508,24.733,29.186,90.689,40.409,61.589,425.84,0.091218,37.796,0.056746,supercritical,CO2,C124389,carbon-dioxide,304.18,73.8,10.6,0.09433962264150944,1.8,5.243360433604336,0.001219848
547.52,389.42,8736.5,0.00011446,24.715,29.172,90.612,40.419,61.636,426.78,0.090369,37.915,0.056905,supercritical,CO2,C124389,carbon-dioxide,304.18,73.8,10.6,0.09433962264150944,1.8,5.27669376693767,0.001213276
547.52,391.88,8783.1,0.00011385,24.697,29.159,90.536,40.428,61.683,427.73,0.089526,38.035,0.057065,supercritical,CO2,C124389,carbon-dioxide,304.18,73.8,10.6,0.09433962264150944,1.8,5.310027100271003,0.00120681
547.52,394.33,8829.6,0.00011326,24.679,29.145,90.46,40.437,61.729,428.68,0.08869,38.154,0.057225,supercritical,CO2,C124389,carbon-dioxide,304.18,73.8,10.6,0.09433962264150944,1.8,5.343224932249322,0.001200556
547.52,396.79,8875.9,0.00011266,24.661,29.132,90.385,40.447,61.774,429.63,0.087859,38.274,0.057384,supercritical,CO2,C124389,carbon-dioxide,304.18,73.8,10.6,0.09433962264150944,1.8,5.3765582655826565,0.0011941959999999998
547.52,399.25,8922.1,0.00011208,24.644,29.118,90.31,40.456,61.819,430.58,0.087034,38.394,0.057544,supercritical,CO2,C124389,carbon-dioxide,304.18,73.8,10.6,0.09433962264150944,1.8,5.40989159891599,0.001188048
547.52,401.71,8968.0,0.00011151,24.626,29.105,90.236,40.465,61.863,431.54,0.086216,38.515,0.057703,supercritical,CO2,C124389,carbon-dioxide,304.18,73.8,10.6,0.09433962264150944,1.8,5.443224932249322,0.0011820059999999998
547.52,404.17,9013.8,0.00011094,24.608,29.092,90.162,40.474,61.906,432.5,0.085403,38.635,0.057862,supercritical,CO2,C124389,carbon-dioxide,304.18,73.8,10.6,0.09433962264150944,1.8,5.476558265582656,0.001175964
547.52,406.63,9059.4,0.00011038,24.591,29.079,90.089,40.483,61.949,433.47,0.084596,38.756,0.058021,supercritical,CO2,C124389,carbon-dioxide,304.18,73.8,10.6,0.09433962264150944,1.8,5.509891598915989,0.0011700279999999998
547.52,409.08,9104.8,0.00010983,24.573,29.066,90.016,40.492,61.991,434.44,0.083796,38.878,0.05818,supercritical,CO2,C124389,carbon-dioxide,304.18,73.8,10.6,0.09433962264150944,1.8,5.543089430894309,0.001164198
547.52,411.54,9150.0,0.00010929,24.556,29.054,89.944,40.5,62.032,435.41,0.083001,38.999,0.058339,supercritical,CO2,C124389,carbon-dioxide,304.18,73.8,10.6,0.09433962264150944,1.8,5.576422764227643,0.001158474
547.52,414.0,9195.0,0.00010875,24.539,29.041,89.872,40.509,62.072,436.38,0.082212,39.121,0.058497,supercritical,CO2,C124389,carbon-dioxide,304.18,73.8,10.6,0.09433962264150944,1.8,5.609756097560976,0.00115275
547.52,416.46,9239.9,0.00010823,24.521,29.029,89.8,40.518,62.112,437.35,0.081429,39.243,0.058656,supercritical,CO2,C124389,carbon-dioxide,304.18,73.8,10.6,0.09433962264150944,1.8,5.6430894308943085,0.0011472379999999999
547.52,418.92,9284.5,0.00010771,24.504,29.016,89.729,40.527,62.151,438.33,0.080652,39.365,0.058814,supercritical,CO2,C124389,carbon-dioxide,304.18,73.8,10.6,0.09433962264150944,1.8,5.676422764227643,0.0011417259999999998
547.52,421.38,9329.0,0.00010719,24.487,29.004,89.658,40.535,62.19,439.31,0.07988,39.488,0.058972,supercritical,CO2,C124389,carbon-dioxide,304.18,73.8,10.6,0.09433962264150944,1.8,5.709756097560976,0.001136214
547.52,423.83,9373.4,0.00010669,24.47,28.992,89.588,40.544,62.228,440.3,0.079114,39.61,0.05913,supercritical,CO2,C124389,carbon-dioxide,304.18,73.8,10.6,0.09433962264150944,1.8,5.742953929539295,0.0011309139999999998
547.52,426.29,9417.5,0.00010619,24.453,28.98,89.518,40.552,62.265,441.28,0.078354,39.733,0.059288,supercritical,CO2,C124389,carbon-dioxide,304.18,73.8,10.6,0.09433962264150944,1.8,5.776287262872629,0.0011256139999999998
547.52,428.75,9461.4,0.00010569,24.436,28.968,89.449,40.56,62.302,442.27,0.0776,39.856,0.059446,supercritical,CO2,C124389,carbon-dioxide,304.18,73.8,10.6,0.09433962264150944,1.8,5.809620596205963,0.0011203139999999999
547.52,431.21,9505.2,0.00010521,24.42,28.956,89.38,40.569,62.338,443.26,0.076852,39.98,0.059603,supercritical,CO2,C124389,carbon-dioxide,304.18,73.8,10.6,0.09433962264150944,1.8,5.842953929539295,0.001115226
547.52,433.67,9548.8,0.00010472,24.403,28.944,89.312,40.577,62.373,444.25,0.076109,40.103,0.059761,supercritical,CO2,C124389,carbon-dioxide,304.18,73.8,10.6,0.09433962264150944,1.8,5.876287262872629,0.001110032
547.52,436.13,9592.2,0.00010425,24.386,28.933,89.243,40.585,62.408,445.25,0.075371,40.227,0.059918,supercritical,CO2,C124389,carbon-dioxide,304.18,73.8,10.6,0.09433962264150944,1.8,5.909620596205962,0.00110505
547.52,438.58,9635.5,0.00010378,24.369,28.921,89.176,40.593,62.443,446.24,0.074639,40.351,0.060075,supercritical,CO2,C124389,carbon-dioxide,304.18,73.8,10.6,0.09433962264150944,1.8,5.942818428184282,0.0011000679999999998
547.52,441.04,9678.5,0.00010332,24.353,28.91,89.108,40.601,62.476,447.24,0.073913,40.475,0.060231,supercritical,CO2,C124389,carbon-dioxide,304.18,73.8,10.6,0.09433962264150944,1.8,5.976151761517616,0.0010951919999999998
547.52,443.5,9721.4,0.00010287,24.336,28.898,89.041,40.609,62.509,448.24,0.073192,40.599,0.060388,supercritical,CO2,C124389,carbon-dioxide,304.18,73.8,10.6,0.09433962264150944,1.8,6.009485094850949,0.001090422
547.52,445.96,9764.1,0.00010242,24.32,28.887,88.975,40.617,62.542,449.24,0.072477,40.723,0.060544,supercritical,CO2,C124389,carbon-dioxide,304.18,73.8,10.6,0.09433962264150944,1.8,6.042818428184281,0.0010856519999999999
547.52,448.42,9806.7,0.00010197,24.304,28.876,88.909,40.625,62.574,450.25,0.071767,40.848,0.0607,supercritical,CO2,C124389,carbon-dioxide,304.18,73.8,10.6,0.09433962264150944,1.8,6.0761517615176155,0.001080882
547.52,450.88,9849.0,0.00010153,24.287,28.865,88.843,40.633,62.605,451.25,0.071062,40.973,0.060856,supercritical,CO2,C124389,carbon-dioxide,304.18,73.8,10.6,0.09433962264150944,1.8,6.109485094850949,0.0010762179999999999