Temperature (K),Pressure (bar),Density (mol/m3),Volume (m3/mol),Internal Energy (kJ/mol),Enthalpy (kJ/mol),Entropy (J/mol*K),Cv (J/mol*K),Cp (J/mol*K),Sound Spd. (m/s),Joule-Thomson (K/bar),Viscosity (uPa*s),Therm. Cond. (W/m*K),Phase,substance,substance_id,substance_name,Tc,Pc,rhoc,Vmc,Tr,Pr,Vmr
170.04,257.62,25801.0,3.8758e-05,-0.56659,0.4319,124.95,25.369,56.392,558.13,0.0058155,64.056,0.082697,supercritical,O2,C7782447,oxygen,154.58,50.43,13.6,0.07352941176470588,1.1,5.108467182232798,0.0005271087999999999
170.04,258.99,25831.0,3.8713e-05,-0.57113,0.43147,124.91,25.373,56.302,559.51,0.0054564,64.223,0.08287,supercritical,O2,C7782447,oxygen,154.58,50.43,13.6,0.07352941176470588,1.1,5.135633551457466,0.0005264967999999999
170.04,260.35,25861.0,3.8668e-05,-0.57565,0.43107,124.88,25.377,56.213,560.87,0.0051018,64.39,0.083042,supercritical,O2,C7782447,oxygen,154.58,50.43,13.6,0.07352941176470588,1.1,5.162601626016261,0.0005258848000000001
170.04,261.71,25891.0,3.8623e-05,-0.58013,0.43069,124.85,25.381,56.125,562.24,0.0047515,64.557,0.083213,supercritical,O2,C7782447,oxygen,154.58,50.43,13.6,0.07352941176470588,1.1,5.1895697005750545,0.0005252728
170.04,263.08,25921.0,3.8579e-05,-0.58459,0.43034,124.81,25.385,56.039,563.59,0.0044054,64.723,0.083384,supercritical,O2,C7782447,oxygen,154.58,50.43,13.6,0.07352941176470588,1.1,5.2167360697997225,0.0005246744
170.04,264.44,25951.0,3.8535e-05,-0.58902,0.43001,124.78,25.389,55.953,564.94,0.0040635,64.888,0.083555,supercritical,O2,C7782447,oxygen,154.58,50.43,13.6,0.07352941176470588,1.1,5.243704144358516,0.0005240760000000001
170.04,265.81,25980.0,3.8491e-05,-0.59342,0.42972,124.75,25.393,55.869,566.28,0.0037257,65.053,0.083725,supercritical,O2,C7782447,oxygen,154.58,50.43,13.6,0.07352941176470588,1.1,5.270870513583184,0.0005234776
170.04,267.18,26009.0,3.8448e-05,-0.59779,0.42945,124.71,25.398,55.785,567.61,0.0033919,65.218,0.083894,supercritical,O2,C7782447,oxygen,154.58,50.43,13.6,0.07352941176470588,1.1,5.298036882807852,0.0005228928
170.04,268.54,26038.0,3.8405e-05,-0.60213,0.4292,124.68,25.402,55.703,568.94,0.003062,65.382,0.084063,supercritical,O2,C7782447,oxygen,154.58,50.43,13.6,0.07352941176470588,1.1,5.325004957366647,0.000522308
170.04,269.9,26067.0,3.8363e-05,-0.60645,0.42898,124.65,25.406,55.621,570.26,0.002736,65.546,0.084232,supercritical,O2,C7782447,oxygen,154.58,50.43,13.6,0.07352941176470588,1.1,5.351973031925441,0.0005217367999999999
170.04,271.27,26096.0,3.8321e-05,-0.61074,0.42878,124.62,25.41,55.541,571.57,0.0024138,65.709,0.0844,supercritical,O2,C7782447,oxygen,154.58,50.43,13.6,0.07352941176470588,1.1,5.379139401150109,0.0005211656
170.04,272.63,26124.0,3.8279e-05,-0.61501,0.42861,124.59,25.415,55.461,572.88,0.0020953,65.872,0.084567,supercritical,O2,C7782447,oxygen,154.58,50.43,13.6,0.07352941176470588,1.1,5.406107475708903,0.0005205943999999999
170.04,274.0,26152.0,3.8238e-05,-0.61924,0.42847,124.56,25.419,55.383,574.18,0.0017804,66.034,0.084734,supercritical,O2,C7782447,oxygen,154.58,50.43,13.6,0.07352941176470588,1.1,5.433273844933571,0.0005200368
170.04,275.37,26180.0,3.8197e-05,-0.62345,0.42834,124.52,25.424,55.305,575.48,0.0014692,66.197,0.084901,supercritical,O2,C7782447,oxygen,154.58,50.43,13.6,0.07352941176470588,1.1,5.460440214158239,0.0005194792
170.04,276.73,26208.0,3.8156e-05,-0.62764,0.42825,124.49,25.428,55.228,576.77,0.0011615,66.358,0.085067,supercritical,O2,C7782447,oxygen,154.58,50.43,13.6,0.07352941176470588,1.1,5.487408288717034,0.0005189216
170.04,278.1,26236.0,3.8115e-05,-0.6318,0.42817,124.46,25.432,55.152,578.05,0.00085724,66.519,0.085233,supercritical,O2,C7782447,oxygen,154.58,50.43,13.6,0.07352941176470588,1.1,5.514574657941702,0.0005183639999999999
170.04,279.46,26264.0,3.8075e-05,-0.63594,0.42812,124.43,25.437,55.077,579.33,0.00055641,66.68,0.085398,supercritical,O2,C7782447,oxygen,154.58,50.43,13.6,0.07352941176470588,1.1,5.541542732500496,0.0005178199999999999
170.04,280.82,26291.0,3.8036e-05,-0.64005,0.42809,124.4,25.441,55.003,580.6,0.00025893,66.841,0.085563,supercritical,O2,C7782447,oxygen,154.58,50.43,13.6,0.07352941176470588,1.1,5.56851080705929,0.0005172896
170.04,282.19,26318.0,3.7996e-05,-0.64414,0.42808,124.37,25.446,54.93,581.86,-3.5254e-05,67.001,0.085727,supercritical,O2,C7782447,oxygen,154.58,50.43,13.6,0.07352941176470588,1.1,5.595677176283958,0.0005167456
170.04,283.56,26346.0,3.7957e-05,-0.6482,0.42809,124.34,25.45,54.858,583.12,-0.00032621,67.16,0.085891,supercritical,O2,C7782447,oxygen,154.58,50.43,13.6,0.07352941176470588,1.1,5.622843545508626,0.0005162152000000001
170.04,284.92,26372.0,3.7918e-05,-0.65224,0.42813,124.31,25.455,54.786,584.37,-0.00061398,67.319,0.086054,supercritical,O2,C7782447,oxygen,154.58,50.43,13.6,0.07352941176470588,1.1,5.64981162006742,0.0005156847999999999
170.04,286.29,26399.0,3.788e-05,-0.65626,0.42818,124.28,25.46,54.715,585.62,-0.00089862,67.478,0.086217,supercritical,O2,C7782447,oxygen,154.58,50.43,13.6,0.07352941176470588,1.1,5.676977989292088,0.000515168
170.04,287.65,26426.0,3.7842e-05,-0.66025,0.42826,124.25,25.464,54.645,586.86,-0.0011802,67.637,0.08638,supercritical,O2,C7782447,oxygen,154.58,50.43,13.6,0.07352941176470588,1.1,5.703946063850882,0.0005146512
170.04,289.01,26452.0,3.7804e-05,-0.66422,0.42836,124.22,25.469,54.576,588.1,-0.0014587,67.795,0.086542,supercritical,O2,C7782447,oxygen,154.58,50.43,13.6,0.07352941176470588,1.1,5.730914138409677,0.0005141344
170.04,290.38,26479.0,3.7766e-05,-0.66817,0.42848,124.19,25.473,54.508,589.33,-0.0017343,67.953,0.086703,supercritical,O2,C7782447,oxygen,154.58,50.43,13.6,0.07352941176470588,1.1,5.758080507634345,0.0005136176
170.04,291.75,26505.0,3.7729e-05,-0.6721,0.42862,124.16,25.478,54.44,590.56,-0.002007,68.11,0.086865,supercritical,O2,C7782447,oxygen,154.58,50.43,13.6,0.07352941176470588,1.1,5.785246876859013,0.0005131144
170.04,293.11,26531.0,3.7692e-05,-0.676,0.42878,124.13,25.483,54.373,591.78,-0.0022767,68.267,0.087025,supercritical,O2,C7782447,oxygen,154.58,50.43,13.6,0.07352941176470588,1.1,5.812214951417807,0.0005126111999999999
170.04,294.48,26557.0,3.7655e-05,-0.67989,0.42895,124.1,25.487,54.307,592.99,-0.0025437,68.424,0.087186,supercritical,O2,C7782447,oxygen,154.58,50.43,13.6,0.07352941176470588,1.1,5.839381320642475,0.0005121079999999999
170.04,295.84,26583.0,3.7618e-05,-0.68375,0.42915,124.07,25.492,54.242,594.2,-0.0028078,68.58,0.087346,supercritical,O2,C7782447,oxygen,154.58,50.43,13.6,0.07352941176470588,1.1,5.866349395201269,0.0005116048
170.04,297.2,26608.0,3.7582e-05,-0.68759,0.42937,124.04,25.497,54.177,595.4,-0.0030692,68.736,0.087505,supercritical,O2,C7782447,oxygen,154.58,50.43,13.6,0.07352941176470588,1.1,5.893317469760063,0.0005111152
170.04,298.57,26634.0,3.7546e-05,-0.69141,0.42961,124.01,25.502,54.113,596.6,-0.0033279,68.892,0.087665,supercritical,O2,C7782447,oxygen,154.58,50.43,13.6,0.07352941176470588,1.1,5.920483838984731,0.0005106256
170.04,299.94,26659.0,3.751e-05,-0.69521,0.42986,123.99,25.506,54.049,597.8,-0.003584,69.047,0.087823,supercritical,O2,C7782447,oxygen,154.58,50.43,13.6,0.07352941176470588,1.1,5.947650208209399,0.000510136
170.04,301.3,26685.0,3.7475e-05,-0.69898,0.43014,123.96,25.511,53.986,598.99,-0.0038375,69.202,0.087982,supercritical,O2,C7782447,oxygen,154.58,50.43,13.6,0.07352941176470588,1.1,5.974618282768194,0.00050966
170.04,302.67,26710.0,3.744e-05,-0.70274,0.43043,123.93,25.516,53.924,600.17,-0.0040883,69.357,0.08814,supercritical,O2,C7782447,oxygen,154.58,50.43,13.6,0.07352941176470588,1.1,6.001784651992862,0.000509184
170.04,304.03,26735.0,3.7405e-05,-0.70648,0.43074,123.9,25.521,53.863,601.35,-0.0043367,69.511,0.088298,supercritical,O2,C7782447,oxygen,154.58,50.43,13.6,0.07352941176470588,1.1,6.028752726551655,0.000508708
170.04,305.39,26759.0,3.737e-05,-0.7102,0.43106,123.87,25.525,53.802,602.52,-0.0045825,69.665,0.088455,supercritical,O2,C7782447,oxygen,154.58,50.43,13.6,0.07352941176470588,1.1,6.05572080111045,0.0005082320000000001
170.04,306.76,26784.0,3.7336e-05,-0.7139,0.43141,123.84,25.53,53.742,603.69,-0.0048259,69.819,0.088612,supercritical,O2,C7782447,oxygen,154.58,50.43,13.6,0.07352941176470588,1.1,6.082887170335118,0.0005077696
170.04,308.12,26809.0,3.7301e-05,-0.71758,0.43177,123.82,25.535,53.682,604.86,-0.0050669,69.972,0.088768,supercritical,O2,C7782447,oxygen,154.58,50.43,13.6,0.07352941176470588,1.1,6.109855244893913,0.0005072936
170.04,309.49,26833.0,3.7267e-05,-0.72124,0.43215,123.79,25.54,53.623,606.02,-0.0053055,70.125,0.088924,supercritical,O2,C7782447,oxygen,154.58,50.43,13.6,0.07352941176470588,1.1,6.137021614118581,0.0005068312
170.04,310.86,26857.0,3.7234e-05,-0.72488,0.43255,123.76,25.545,53.565,607.17,-0.0055418,70.278,0.08908,supercritical,O2,C7782447,oxygen,154.58,50.43,13.6,0.07352941176470588,1.1,6.164187983343249,0.0005063824
170.04,312.22,26882.0,3.72e-05,-0.7285,0.43296,123.73,25.55,53.507,608.32,-0.0057758,70.431,0.089235,supercritical,O2,C7782447,oxygen,154.58,50.43,13.6,0.07352941176470588,1.1,6.191156057902043,0.00050592
170.04,313.58,26906.0,3.7167e-05,-0.7321,0.43339,123.71,25.555,53.45,609.47,-0.0060074,70.583,0.08939,supercritical,O2,C7782447,oxygen,154.58,50.43,13.6,0.07352941176470588,1.1,6.2181241324608365,0.0005054711999999999
170.04,314.95,26930.0,3.7134e-05,-0.73569,0.43384,123.68,25.559,53.393,610.61,-0.0062369,70.735,0.089545,supercritical,O2,C7782447,oxygen,154.58,50.43,13.6,0.07352941176470588,1.1,6.2452905016855045,0.0005050224
170.04,316.31,26954.0,3.7101e-05,-0.73925,0.4343,123.65,25.564,53.337,611.75,-0.0064641,70.886,0.089699,supercritical,O2,C7782447,oxygen,154.58,50.43,13.6,0.07352941176470588,1.1,6.272258576244299,0.0005045736
170.04,317.68,26977.0,3.7068e-05,-0.7428,0.43478,123.63,25.569,53.282,612.88,-0.0066892,71.038,0.089853,supercritical,O2,C7782447,oxygen,154.58,50.43,13.6,0.07352941176470588,1.1,6.299424945468967,0.0005041248
170.04,319.05,27001.0,3.7036e-05,-0.74634,0.43528,123.6,25.574,53.227,614.01,-0.0069121,71.189,0.090007,supercritical,O2,C7782447,oxygen,154.58,50.43,13.6,0.07352941176470588,1.1,6.326591314693635,0.0005036896
170.04,320.41,27024.0,3.7004e-05,-0.74985,0.43579,123.57,25.579,53.172,615.13,-0.0071329,71.339,0.09016,supercritical,O2,C7782447,oxygen,154.58,50.43,13.6,0.07352941176470588,1.1,6.35355938925243,0.0005032544
170.04,321.77,27048.0,3.6972e-05,-0.75335,0.43631,123.55,25.584,53.118,616.25,-0.0073516,71.49,0.090313,supercritical,O2,C7782447,oxygen,154.58,50.43,13.6,0.07352941176470588,1.1,6.380527463811223,0.0005028191999999999
170.04,323.14,27071.0,3.694e-05,-0.75683,0.43685,123.52,25.589,53.065,617.37,-0.0075683,71.64,0.090465,supercritical,O2,C7782447,oxygen,154.58,50.43,13.6,0.07352941176470588,1.1,6.407693833035891,0.000502384
170.04,324.5,27094.0,3.6908e-05,-0.76029,0.43741,123.49,25.594,53.012,618.48,-0.007783,71.79,0.090617,supercritical,O2,C7782447,oxygen,154.58,50.43,13.6,0.07352941176470588,1.1,6.434661907594686,0.0005019488
170.04,325.87,27117.0,3.6877e-05,-0.76373,0.43798,123.47,25.599,52.959,619.59,-0.0079956,71.939,0.090769,supercritical,O2,C7782447,oxygen,154.58,50.43,13.6,0.07352941176470588,1.1,6.461828276819354,0.0005015271999999999
170.04,327.24,27140.0,3.6846e-05,-0.76716,0.43856,123.44,25.604,52.907,620.69,-0.0082063,72.089,0.090921,supercritical,O2,C7782447,oxygen,154.58,50.43,13.6,0.07352941176470588,1.1,6.488994646044022,0.0005011055999999999
170.04,328.6,27163.0,3.6815e-05,-0.77057,0.43916,123.41,25.609,52.856,621.79,-0.0084151,72.238,0.091072,supercritical,O2,C7782447,oxygen,154.58,50.43,13.6,0.07352941176470588,1.1,6.515962720602817,0.0005006839999999999
170.04,329.96,27186.0,3.6784e-05,-0.77397,0.43978,123.39,25.614,52.805,622.88,-0.008622,72.387,0.091223,supercritical,O2,C7782447,oxygen,154.58,50.43,13.6,0.07352941176470588,1.1,6.54293079516161,0.0005002623999999999
170.04,331.33,27208.0,3.6754e-05,-0.77735,0.44041,123.36,25.619,52.754,623.97,-0.0088269,72.535,0.091373,supercritical,O2,C7782447,oxygen,154.58,50.43,13.6,0.07352941176470588,1.1,6.5700971643862776,0.0004998544
170.04,332.69,27231.0,3.6723e-05,-0.78071,0.44105,123.34,25.624,52.704,625.06,-0.00903,72.683,0.091523,supercritical,O2,C7782447,oxygen,154.58,50.43,13.6,0.07352941176470588,1.1,6.597065238945072,0.0004994328
170.04,334.06,27253.0,3.6693e-05,-0.78406,0.4417,123.31,25.629,52.655,626.14,-0.0092313,72.831,0.091673,supercritical,O2,C7782447,oxygen,154.58,50.43,13.6,0.07352941176470588,1.1,6.62423160816974,0.0004990248
170.04,335.43,27276.0,3.6663e-05,-0.78739,0.44238,123.29,25.633,52.606,627.22,-0.0094308,72.979,0.091823,supercritical,O2,C7782447,oxygen,154.58,50.43,13.6,0.07352941176470588,1.1,6.651397977394408,0.0004986168
170.04,336.79,27298.0,3.6633e-05,-0.79071,0.44306,123.26,25.638,52.557,628.3,-0.0096285,73.127,0.091972,supercritical,O2,C7782447,oxygen,154.58,50.43,13.6,0.07352941176470588,1.1,6.678366051953203,0.0004982087999999999
170.04,338.15,27320.0,3.6603e-05,-0.79401,0.44376,123.23,25.643,52.509,629.37,-0.0098244,73.274,0.092121,supercritical,O2,C7782447,oxygen,154.58,50.43,13.6,0.07352941176470588,1.1,6.705334126511996,0.0004978008
170.04,339.52,27342.0,3.6574e-05,-0.79729,0.44447,123.21,25.648,52.461,630.44,-0.010019,73.421,0.092269,supercritical,O2,C7782447,oxygen,154.58,50.43,13.6,0.07352941176470588,1.1,6.732500495736664,0.0004974064
170.04,340.88,27364.0,3.6545e-05,-0.80056,0.44519,123.18,25.653,52.414,631.5,-0.010211,73.568,0.092417,supercritical,O2,C7782447,oxygen,154.58,50.43,13.6,0.07352941176470588,1.1,6.759468570295459,0.000497012
170.04,342.25,27386.0,3.6516e-05,-0.80382,0.44593,123.16,25.658,52.367,632.56,-0.010402,73.714,0.092565,supercritical,O2,C7782447,oxygen,154.58,50.43,13.6,0.07352941176470588,1.1,6.786634939520127,0.0004966176
170.04,343.62,27407.0,3.6487e-05,-0.80706,0.44668,123.13,25.663,52.32,633.62,-0.010591,73.86,0.092713,supercritical,O2,C7782447,oxygen,154.58,50.43,13.6,0.07352941176470588,1.1,6.813801308744795,0.0004962231999999999
170.04,344.98,27429.0,3.6458e-05,-0.81029,0.44744,123.11,25.668,52.274,634.67,-0.010779,74.006,0.09286,supercritical,O2,C7782447,oxygen,154.58,50.43,13.6,0.07352941176470588,1.1,6.84076938330359,0.0004958288
170.04,346.35,27450.0,3.6429e-05,-0.8135,0.44822,123.09,25.673,52.228,635.72,-0.010964,74.152,0.093007,supercritical,O2,C7782447,oxygen,154.58,50.43,13.6,0.07352941176470588,1.1,6.867935752528258,0.0004954344
170.04,347.71,27472.0,3.6401e-05,-0.81669,0.449,123.06,25.678,52.183,636.76,-0.011149,74.298,0.093154,supercritical,O2,C7782447,oxygen,154.58,50.43,13.6,0.07352941176470588,1.1,6.894903827087051,0.0004950536
170.04,349.07,27493.0,3.6373e-05,-0.81988,0.4498,123.04,25.683,52.138,637.8,-0.011331,74.443,0.0933,supercritical,O2,C7782447,oxygen,154.58,50.43,13.6,0.07352941176470588,1.1,6.921871901645845,0.0004946728
170.04,350.44,27514.0,3.6345e-05,-0.82304,0.45062,123.01,25.688,52.094,638.84,-0.011513,74.588,0.093446,supercritical,O2,C7782447,oxygen,154.58,50.43,13.6,0.07352941176470588,1.1,6.949038270870513,0.0004942919999999999
170.04,351.81,27536.0,3.6317e-05,-0.8262,0.45144,122.99,25.693,52.049,639.88,-0.011692,74.733,0.093592,supercritical,O2,C7782447,oxygen,154.58,50.43,13.6,0.07352941176470588,1.1,6.976204640095181,0.0004939111999999999
170.04,353.17,27557.0,3.6289e-05,-0.82934,0.45228,122.96,25.698,52.006,640.91,-0.01187,74.878,0.093737,supercritical,O2,C7782447,oxygen,154.58,50.43,13.6,0.07352941176470588,1.1,7.003172714653976,0.0004935304
170.04,354.54,27578.0,3.6261e-05,-0.83247,0.45313,122.94,25.704,51.962,641.94,-0.012047,75.022,0.093882,supercritical,O2,C7782447,oxygen,154.58,50.43,13.6,0.07352941176470588,1.1,7.030339083878644,0.0004931495999999999
170.04,355.9,27598.0,3.6234e-05,-0.83558,0.45399,122.91,25.709,51.919,642.96,-0.012222,75.166,0.094027,supercritical,O2,C7782447,oxygen,154.58,50.43,13.6,0.07352941176470588,1.1,7.057307158437438,0.0004927824
170.04,357.26,27619.0,3.6207e-05,-0.83868,0.45486,122.89,25.714,51.877,643.98,-0.012396,75.31,0.094172,supercritical,O2,C7782447,oxygen,154.58,50.43,13.6,0.07352941176470588,1.1,7.084275232996232,0.0004924152
170.04,358.63,27640.0,3.618e-05,-0.84176,0.45574,122.87,25.719,51.834,645.0,-0.012568,75.454,0.094316,supercritical,O2,C7782447,oxygen,154.58,50.43,13.6,0.07352941176470588,1.1,7.1114416022209,0.000492048
170.04,360.0,27661.0,3.6153e-05,-0.84484,0.45664,122.84,25.724,51.792,646.01,-0.012738,75.597,0.09446,supercritical,O2,C7782447,oxygen,154.58,50.43,13.6,0.07352941176470588,1.1,7.138607971445568,0.0004916807999999999
170.04,361.36,27681.0,3.6126e-05,-0.8479,0.45754,122.82,25.729,51.751,647.03,-0.012908,75.741,0.094604,supercritical,O2,C7782447,oxygen,154.58,50.43,13.6,0.07352941176470588,1.1,7.165576046004363,0.0004913135999999999
170.04,362.73,27702.0,3.6099e-05,-0.85094,0.45846,122.8,25.734,51.709,648.03,-0.013076,75.884,0.094747,supercritical,O2,C7782447,oxygen,154.58,50.43,13.6,0.07352941176470588,1.1,7.192742415229031,0.0004909463999999999
170.04,364.09,27722.0,3.6073e-05,-0.85397,0.45939,122.77,25.739,51.669,649.04,-0.013242,76.027,0.09489,supercritical,O2,C7782447,oxygen,154.58,50.43,13.6,0.07352941176470588,1.1,7.219710489787825,0.0004905927999999999
170.04,365.45,27742.0,3.6046e-05,-0.857,0.46033,122.75,25.744,51.628,650.04,-0.013408,76.169,0.095033,supercritical,O2,C7782447,oxygen,154.58,50.43,13.6,0.07352941176470588,1.1,7.2466785643466185,0.0004902255999999999
170.04,366.82,27762.0,3.602e-05,-0.86,0.46128,122.73,25.749,51.588,651.04,-0.013572,76.312,0.095176,supercritical,O2,C7782447,oxygen,154.58,50.43,13.6,0.07352941176470588,1.1,7.2738449335712865,0.0004898719999999999
170.04,368.19,27783.0,3.5994e-05,-0.863,0.46224,122.7,25.754,51.548,652.03,-0.013734,76.454,0.095318,supercritical,O2,C7782447,oxygen,154.58,50.43,13.6,0.07352941176470588,1.1,7.3010113027959544,0.0004895184
170.04,369.55,27803.0,3.5968e-05,-0.86598,0.46321,122.68,25.759,51.508,653.02,-0.013895,76.596,0.09546,supercritical,O2,C7782447,oxygen,154.58,50.43,13.6,0.07352941176470588,1.1,7.327979377354749,0.0004891648
170.04,370.92,27823.0,3.5942e-05,-0.86895,0.46419,122.66,25.764,51.469,654.01,-0.014055,76.738,0.095602,supercritical,O2,C7782447,oxygen,154.58,50.43,13.6,0.07352941176470588,1.1,7.355145746579417,0.0004888112
170.04,372.28,27842.0,3.5916e-05,-0.87191,0.46519,122.63,25.769,51.43,655.0,-0.014214,76.88,0.095743,supercritical,O2,C7782447,oxygen,154.58,50.43,13.6,0.07352941176470588,1.1,7.382113821138211,0.0004884576
170.04,373.64,27862.0,3.5891e-05,-0.87485,0.46619,122.61,25.774,51.391,655.98,-0.014372,77.021,0.095884,supercritical,O2,C7782447,oxygen,154.58,50.43,13.6,0.07352941176470588,1.1,7.409081895697006,0.0004881176
170.04,375.01,27882.0,3.5865e-05,-0.87779,0.4672,122.59,25.779,51.353,656.96,-0.014528,77.162,0.096025,supercritical,O2,C7782447,oxygen,154.58,50.43,13.6,0.07352941176470588,1.1,7.436248264921674,0.000487764
170.04,376.38,27902.0,3.584e-05,-0.88071,0.46823,122.56,25.784,51.315,657.94,-0.014683,77.303,0.096166,supercritical,O2,C7782447,oxygen,154.58,50.43,13.6,0.07352941176470588,1.1,7.463414634146341,0.00048742400000000003
170.04,377.74,27921.0,3.5815e-05,-0.88362,0.46926,122.54,25.789,51.277,658.91,-0.014837,77.444,0.096306,supercritical,O2,C7782447,oxygen,154.58,50.43,13.6,0.07352941176470588,1.1,7.490382708705136,0.000487084
170.04,379.11,27941.0,3.579e-05,-0.88652,0.4703,122.52,25.794,51.24,659.88,-0.014989,77.585,0.096446,supercritical,O2,C7782447,oxygen,154.58,50.43,13.6,0.07352941176470588,1.1,7.517549077929804,0.000486744
170.04,380.47,27960.0,3.5765e-05,-0.8894,0.47136,122.5,25.799,51.203,660.85,-0.01514,77.726,0.096586,supercritical,O2,C7782447,oxygen,154.58,50.43,13.6,0.07352941176470588,1.1,7.5445171524885986,0.000486404
170.04,381.83,27979.0,3.5741e-05,-0.89228,0.47242,122.47,25.804,51.166,661.82,-0.015291,77.866,0.096726,supercritical,O2,C7782447,oxygen,154.58,50.43,13.6,0.07352941176470588,1.1,7.5714852270473925,0.0004860776