Temperature (K),Pressure (bar),Density (mol/m3),Volume (m3/mol),Internal Energy (kJ/mol),Enthalpy (kJ/mol),Entropy (J/mol*K),Cv (J/mol*K),Cp (J/mol*K),Sound Spd. (m/s),Joule-Thomson (K/bar),Viscosity (uPa*s),Therm. Cond. (W/m*K),Phase,substance,substance_id,substance_name,Tc,Pc,rhoc,Vmc,Tr,Pr,Vmr
1099.9,1311.0,15982.0,6.2572e-05,58.715,66.918,106.82,41.238,66.245,883.1,0.073052,55.027,0.27897,supercritical,H2O,C7732185,water,647.0,220.64,17.9,0.0558659217877095,1.6999999999999997,5.9418056562726616,0.0011200388
1099.9,1318.4,16066.0,6.2245e-05,58.677,66.883,106.74,41.26,66.308,884.47,0.072514,55.119,0.28005,supercritical,H2O,C7732185,water,647.0,220.64,17.9,0.0558659217877095,1.6999999999999997,5.975344452501814,0.0011141855
1099.9,1325.7,16149.0,6.1922e-05,58.639,66.848,106.67,41.282,66.37,885.85,0.071979,55.212,0.28112,supercritical,H2O,C7732185,water,647.0,220.64,17.9,0.0558659217877095,1.6999999999999997,6.008430021754895,0.0011084037999999998
1099.9,1333.0,16233.0,6.1604e-05,58.6,66.813,106.6,41.304,66.431,887.24,0.071446,55.304,0.28219,supercritical,H2O,C7732185,water,647.0,220.64,17.9,0.0558659217877095,1.6999999999999997,6.041515591007977,0.0011027116
1099.9,1340.4,16316.0,6.129e-05,58.563,66.778,106.53,41.325,66.491,888.63,0.070917,55.397,0.28326,supercritical,H2O,C7732185,water,647.0,220.64,17.9,0.0558659217877095,1.6999999999999997,6.075054387237129,0.001097091
1099.9,1347.7,16399.0,6.0979e-05,58.525,66.743,106.45,41.347,66.55,890.03,0.07039,55.489,0.28433,supercritical,H2O,C7732185,water,647.0,220.64,17.9,0.0558659217877095,1.6999999999999997,6.108139956490211,0.0010915241
1099.9,1355.1,16482.0,6.0673e-05,58.487,66.709,106.38,41.368,66.608,891.44,0.069867,55.582,0.28539,supercritical,H2O,C7732185,water,647.0,220.64,17.9,0.0558659217877095,1.6999999999999997,6.141678752719362,0.0010860467
1099.9,1362.4,16564.0,6.0371e-05,58.45,66.675,106.31,41.389,66.665,892.86,0.069346,55.674,0.28646,supercritical,H2O,C7732185,water,647.0,220.64,17.9,0.0558659217877095,1.6999999999999997,6.174764321972445,0.0010806409
1099.9,1369.8,16647.0,6.0072e-05,58.412,66.641,106.24,41.41,66.72,894.28,0.068828,55.766,0.28752,supercritical,H2O,C7732185,water,647.0,220.64,17.9,0.0558659217877095,1.6999999999999997,6.208303118201596,0.0010752887999999998
1099.9,1377.1,16729.0,5.9778e-05,58.375,66.607,106.17,41.431,66.775,895.71,0.068314,55.858,0.28858,supercritical,H2O,C7732185,water,647.0,220.64,17.9,0.0558659217877095,1.6999999999999997,6.241388687454677,0.0010700262
1099.9,1384.5,16810.0,5.9487e-05,58.338,66.574,106.1,41.451,66.829,897.15,0.067802,55.95,0.28963,supercritical,H2O,C7732185,water,647.0,220.64,17.9,0.0558659217877095,1.6999999999999997,6.274927483683829,0.0010648173
1099.9,1391.8,16892.0,5.9199e-05,58.301,66.541,106.03,41.472,66.882,898.59,0.067293,56.042,0.29069,supercritical,H2O,C7732185,water,647.0,220.64,17.9,0.0558659217877095,1.6999999999999997,6.308013052936911,0.0010596620999999999
1099.9,1399.2,16973.0,5.8916e-05,58.264,66.508,105.96,41.492,66.933,900.04,0.066787,56.134,0.29174,supercritical,H2O,C7732185,water,647.0,220.64,17.9,0.0558659217877095,1.6999999999999997,6.341551849166063,0.0010545964
1099.9,1406.5,17054.0,5.8636e-05,58.228,66.475,105.89,41.512,66.984,901.49,0.066284,56.226,0.29279,supercritical,H2O,C7732185,water,647.0,220.64,17.9,0.0558659217877095,1.6999999999999997,6.3746374184191446,0.0010495843999999998
1099.9,1413.9,17135.0,5.8359e-05,58.191,66.443,105.82,41.532,67.034,902.95,0.065784,56.318,0.29384,supercritical,H2O,C7732185,water,647.0,220.64,17.9,0.0558659217877095,1.6999999999999997,6.408176214648297,0.0010446261
1099.9,1421.2,17216.0,5.8086e-05,58.155,66.41,105.75,41.552,67.083,904.42,0.065287,56.41,0.29489,supercritical,H2O,C7732185,water,647.0,220.64,17.9,0.0558659217877095,1.6999999999999997,6.441261783901378,0.0010397394
1099.9,1428.6,17296.0,5.7816e-05,58.119,66.378,105.69,41.572,67.131,905.9,0.064793,56.502,0.29593,supercritical,H2O,C7732185,water,647.0,220.64,17.9,0.0558659217877095,1.6999999999999997,6.4748005801305295,0.0010349063999999999
1099.9,1435.9,17377.0,5.7549e-05,58.083,66.346,105.62,41.591,67.178,907.38,0.064302,56.593,0.29697,supercritical,H2O,C7732185,water,647.0,220.64,17.9,0.0558659217877095,1.6999999999999997,6.507886149383612,0.0010301270999999999
1099.9,1443.3,17456.0,5.7286e-05,58.047,66.315,105.55,41.61,67.224,908.86,0.063814,56.685,0.29801,supercritical,H2O,C7732185,water,647.0,220.64,17.9,0.0558659217877095,1.6999999999999997,6.541424945612763,0.0010254194
1099.9,1450.6,17536.0,5.7025e-05,58.011,66.283,105.48,41.63,67.269,910.35,0.063328,56.776,0.29905,supercritical,H2O,C7732185,water,647.0,220.64,17.9,0.0558659217877095,1.6999999999999997,6.574510514865845,0.0010207475
1099.9,1458.0,17615.0,5.6768e-05,57.975,66.252,105.42,41.649,67.313,911.85,0.062846,56.868,0.30009,supercritical,H2O,C7732185,water,647.0,220.64,17.9,0.0558659217877095,1.6999999999999997,6.608049311094997,0.0010161472
1099.9,1465.3,17695.0,5.6514e-05,57.94,66.221,105.35,41.668,67.356,913.36,0.062367,56.959,0.30112,supercritical,H2O,C7732185,water,647.0,220.64,17.9,0.0558659217877095,1.6999999999999997,6.641134880348078,0.0010116005999999999
1099.9,1472.7,17774.0,5.6263e-05,57.905,66.19,105.29,41.687,67.399,914.86,0.06189,57.05,0.30215,supercritical,H2O,C7732185,water,647.0,220.64,17.9,0.0558659217877095,1.6999999999999997,6.67467367657723,0.0010071077
1099.9,1480.0,17852.0,5.6015e-05,57.869,66.16,105.22,41.705,67.44,916.38,0.061417,57.141,0.30318,supercritical,H2O,C7732185,water,647.0,220.64,17.9,0.0558659217877095,1.6999999999999997,6.707759245830312,0.0010026685
1099.9,1487.4,17931.0,5.577e-05,57.834,66.129,105.16,41.724,67.481,917.9,0.060946,57.233,0.30421,supercritical,H2O,C7732185,water,647.0,220.64,17.9,0.0558659217877095,1.6999999999999997,6.741298042059464,0.000998283
1099.9,1494.7,18009.0,5.5528e-05,57.799,66.099,105.09,41.742,67.521,919.42,0.060479,57.324,0.30523,supercritical,H2O,C7732185,water,647.0,220.64,17.9,0.0558659217877095,1.6999999999999997,6.774383611312546,0.0009939512
1099.9,1502.1,18087.0,5.5289e-05,57.765,66.069,105.03,41.76,67.56,920.96,0.060014,57.415,0.30625,supercritical,H2O,C7732185,water,647.0,220.64,17.9,0.0558659217877095,1.6999999999999997,6.807922407541697,0.0009896731
1099.9,1509.4,18164.0,5.5053e-05,57.73,66.04,104.96,41.779,67.598,922.49,0.059552,57.505,0.30727,supercritical,H2O,C7732185,water,647.0,220.64,17.9,0.0558659217877095,1.6999999999999997,6.84100797679478,0.0009854487
1099.9,1516.8,18242.0,5.4819e-05,57.696,66.01,104.9,41.797,67.635,924.03,0.059093,57.596,0.30829,supercritical,H2O,C7732185,water,647.0,220.64,17.9,0.0558659217877095,1.6999999999999997,6.874546773023931,0.0009812601
1099.9,1524.1,18319.0,5.4588e-05,57.661,65.981,104.84,41.814,67.671,925.58,0.058638,57.687,0.30931,supercritical,H2O,C7732185,water,647.0,220.64,17.9,0.0558659217877095,1.6999999999999997,6.9076323422770125,0.0009771252
1099.9,1531.5,18396.0,5.436e-05,57.627,65.952,104.77,41.832,67.707,927.13,0.058185,57.778,0.31032,supercritical,H2O,C7732185,water,647.0,220.64,17.9,0.0558659217877095,1.6999999999999997,6.9411711385061645,0.000973044
1099.9,1538.8,18473.0,5.4134e-05,57.593,65.923,104.71,41.85,67.742,928.68,0.057735,57.868,0.31133,supercritical,H2O,C7732185,water,647.0,220.64,17.9,0.0558659217877095,1.6999999999999997,6.974256707759246,0.0009689986
1099.9,1546.1,18549.0,5.3911e-05,57.559,65.895,104.65,41.867,67.776,930.24,0.057288,57.959,0.31234,supercritical,H2O,C7732185,water,647.0,220.64,17.9,0.0558659217877095,1.6999999999999997,7.007342277012328,0.0009650068999999999
1099.9,1553.5,18625.0,5.3691e-05,57.525,65.866,104.59,41.885,67.809,931.81,0.056843,58.049,0.31334,supercritical,H2O,C7732185,water,647.0,220.64,17.9,0.0558659217877095,1.6999999999999997,7.04088107324148,0.0009610688999999999
1099.9,1560.8,18701.0,5.3473e-05,57.492,65.838,104.53,41.902,67.841,933.38,0.056402,58.139,0.31435,supercritical,H2O,C7732185,water,647.0,220.64,17.9,0.0558659217877095,1.6999999999999997,7.073966642494561,0.0009571667
1099.9,1568.2,18777.0,5.3257e-05,57.458,65.81,104.46,41.919,67.873,934.95,0.055964,58.229,0.31535,supercritical,H2O,C7732185,water,647.0,220.64,17.9,0.0558659217877095,1.6999999999999997,7.107505438723713,0.0009533003
1099.9,1575.5,18852.0,5.3044e-05,57.425,65.782,104.4,41.936,67.904,936.53,0.055528,58.32,0.31635,supercritical,H2O,C7732185,water,647.0,220.64,17.9,0.0558659217877095,1.6999999999999997,7.140591007976795,0.0009494875999999999
1099.9,1582.9,18927.0,5.2833e-05,57.392,65.754,104.34,41.953,67.934,938.11,0.055096,58.41,0.31734,supercritical,H2O,C7732185,water,647.0,220.64,17.9,0.0558659217877095,1.6999999999999997,7.174129804205947,0.0009457106999999999
1099.9,1590.2,19002.0,5.2625e-05,57.358,65.727,104.28,41.969,67.964,939.7,0.054666,58.5,0.31834,supercritical,H2O,C7732185,water,647.0,220.64,17.9,0.0558659217877095,1.6999999999999997,7.207215373459029,0.0009419874999999999
1099.9,1597.6,19077.0,5.2419e-05,57.325,65.7,104.22,41.986,67.992,941.29,0.054239,58.589,0.31933,supercritical,H2O,C7732185,water,647.0,220.64,17.9,0.0558659217877095,1.6999999999999997,7.24075416968818,0.0009383000999999999
1099.9,1604.9,19151.0,5.2215e-05,57.293,65.673,104.16,42.002,68.02,942.89,0.053815,58.679,0.32032,supercritical,H2O,C7732185,water,647.0,220.64,17.9,0.0558659217877095,1.6999999999999997,7.273839738941263,0.0009346484999999999
1099.9,1612.3,19226.0,5.2014e-05,57.26,65.646,104.1,42.019,68.048,944.48,0.053394,58.769,0.3213,supercritical,H2O,C7732185,water,647.0,220.64,17.9,0.0558659217877095,1.6999999999999997,7.307378535170414,0.0009310506
1099.9,1619.6,19300.0,5.1815e-05,57.227,65.619,104.05,42.035,68.074,946.09,0.052976,58.858,0.32229,supercritical,H2O,C7732185,water,647.0,220.64,17.9,0.0558659217877095,1.6999999999999997,7.3404641044234955,0.0009274884999999999
1099.9,1627.0,19373.0,5.1617e-05,57.195,65.593,103.99,42.051,68.1,947.69,0.05256,58.948,0.32327,supercritical,H2O,C7732185,water,647.0,220.64,17.9,0.0558659217877095,1.6999999999999997,7.3740029006526475,0.0009239442999999999
1099.9,1634.3,19447.0,5.1423e-05,57.163,65.567,103.93,42.067,68.126,949.3,0.052148,59.037,0.32425,supercritical,H2O,C7732185,water,647.0,220.64,17.9,0.0558659217877095,1.6999999999999997,7.407088469905729,0.0009204716999999999
1099.9,1641.7,19520.0,5.123e-05,57.131,65.541,103.87,42.083,68.15,950.91,0.051738,59.127,0.32523,supercritical,H2O,C7732185,water,647.0,220.64,17.9,0.0558659217877095,1.6999999999999997,7.440627266134881,0.000917017
1099.9,1649.0,19593.0,5.1039e-05,57.099,65.515,103.81,42.099,68.174,952.53,0.051331,59.216,0.3262,supercritical,H2O,C7732185,water,647.0,220.64,17.9,0.0558659217877095,1.6999999999999997,7.473712835387963,0.0009135980999999999
1099.9,1656.4,19665.0,5.0851e-05,57.067,65.489,103.76,42.115,68.198,954.15,0.050927,59.305,0.32718,supercritical,H2O,C7732185,water,647.0,220.64,17.9,0.0558659217877095,1.6999999999999997,7.507251631617114,0.0009102329
1099.9,1663.7,19738.0,5.0664e-05,57.035,65.464,103.7,42.13,68.22,955.77,0.050525,59.394,0.32815,supercritical,H2O,C7732185,water,647.0,220.64,17.9,0.0558659217877095,1.6999999999999997,7.540337200870196,0.0009068856
1099.9,1671.1,19810.0,5.0479e-05,57.003,65.439,103.64,42.146,68.242,957.4,0.050127,59.483,0.32911,supercritical,H2O,C7732185,water,647.0,220.64,17.9,0.0558659217877095,1.6999999999999997,7.573875997099347,0.0009035741
1099.9,1678.4,19882.0,5.0297e-05,56.972,65.414,103.59,42.161,68.264,959.03,0.049731,59.572,0.33008,supercritical,H2O,C7732185,water,647.0,220.64,17.9,0.0558659217877095,1.6999999999999997,7.60696156635243,0.0009003163
1099.9,1685.8,19954.0,5.0116e-05,56.94,65.389,103.53,42.176,68.285,960.66,0.049338,59.661,0.33104,supercritical,H2O,C7732185,water,647.0,220.64,17.9,0.0558659217877095,1.6999999999999997,7.640500362581581,0.0008970763999999999
1099.9,1693.1,20025.0,4.9937e-05,56.909,65.364,103.47,42.192,68.305,962.3,0.048948,59.75,0.332,supercritical,H2O,C7732185,water,647.0,220.64,17.9,0.0558659217877095,1.6999999999999997,7.673585931834663,0.0008938723
1099.9,1700.5,20096.0,4.976e-05,56.878,65.34,103.42,42.207,68.325,963.94,0.048561,59.838,0.33296,supercritical,H2O,C7732185,water,647.0,220.64,17.9,0.0558659217877095,1.6999999999999997,7.707124728063815,0.0008907039999999999
1099.9,1707.8,20167.0,4.9585e-05,56.847,65.315,103.36,42.222,68.344,965.58,0.048176,59.927,0.33392,supercritical,H2O,C7732185,water,647.0,220.64,17.9,0.0558659217877095,1.6999999999999997,7.740210297316897,0.0008875714999999999
1099.9,1715.2,20238.0,4.9412e-05,56.816,65.291,103.31,42.237,68.362,967.22,0.047794,60.015,0.33487,supercritical,H2O,C7732185,water,647.0,220.64,17.9,0.0558659217877095,1.6999999999999997,7.773749093546049,0.0008844748
1099.9,1722.5,20308.0,4.9241e-05,56.786,65.267,103.25,42.251,68.38,968.87,0.047415,60.104,0.33582,supercritical,H2O,C7732185,water,647.0,220.64,17.9,0.0558659217877095,1.6999999999999997,7.8068346627991305,0.0008814138999999999
1099.9,1729.9,20379.0,4.9071e-05,56.755,65.244,103.2,42.266,68.398,970.51,0.047038,60.192,0.33677,supercritical,H2O,C7732185,water,647.0,220.64,17.9,0.0558659217877095,1.6999999999999997,7.8403734590282825,0.0008783708999999999
1099.9,1737.2,20449.0,4.8903e-05,56.725,65.22,103.14,42.281,68.415,972.17,0.046664,60.28,0.33772,supercritical,H2O,C7732185,water,647.0,220.64,17.9,0.0558659217877095,1.6999999999999997,7.873459028281364,0.0008753637
1099.9,1744.6,20518.0,4.8737e-05,56.694,65.197,103.09,42.295,68.431,973.82,0.046293,60.368,0.33866,supercritical,H2O,C7732185,water,647.0,220.64,17.9,0.0558659217877095,1.6999999999999997,7.906997824510515,0.0008723922999999999
1099.9,1751.9,20588.0,4.8573e-05,56.664,65.174,103.04,42.309,68.447,975.47,0.045924,60.456,0.3396,supercritical,H2O,C7732185,water,647.0,220.64,17.9,0.0558659217877095,1.6999999999999997,7.940083393763597,0.0008694566999999999
1099.9,1759.3,20657.0,4.841e-05,56.634,65.151,102.98,42.324,68.463,977.13,0.045559,60.544,0.34054,supercritical,H2O,C7732185,water,647.0,220.64,17.9,0.0558659217877095,1.6999999999999997,7.973622189992748,0.0008665389999999999
1099.9,1766.6,20726.0,4.8249e-05,56.604,65.128,102.93,42.338,68.478,978.79,0.045195,60.632,0.34148,supercritical,H2O,C7732185,water,647.0,220.64,17.9,0.0558659217877095,1.6999999999999997,8.006707759245831,0.0008636570999999999
1099.9,1773.9,20795.0,4.8089e-05,56.574,65.105,102.88,42.352,68.492,980.45,0.044835,60.72,0.34241,supercritical,H2O,C7732185,water,647.0,220.64,17.9,0.0558659217877095,1.6999999999999997,8.039793328498913,0.0008607930999999999
1099.9,1781.3,20863.0,4.7931e-05,56.545,65.083,102.83,42.366,68.506,982.12,0.044477,60.808,0.34335,supercritical,H2O,C7732185,water,647.0,220.64,17.9,0.0558659217877095,1.6999999999999997,8.073332124728065,0.0008579648999999999
1099.9,1788.6,20931.0,4.7775e-05,56.515,65.06,102.77,42.38,68.519,983.78,0.044122,60.895,0.34428,supercritical,H2O,C7732185,water,647.0,220.64,17.9,0.0558659217877095,1.6999999999999997,8.106417693981145,0.0008551725
1099.9,1796.0,20999.0,4.762e-05,56.486,65.038,102.72,42.394,68.532,985.45,0.043769,60.983,0.34521,supercritical,H2O,C7732185,water,647.0,220.64,17.9,0.0558659217877095,1.6999999999999997,8.139956490210297,0.000852398
1099.9,1803.3,21067.0,4.7467e-05,56.456,65.016,102.67,42.408,68.545,987.12,0.043419,61.07,0.34613,supercritical,H2O,C7732185,water,647.0,220.64,17.9,0.0558659217877095,1.6999999999999997,8.173042059463379,0.0008496592999999999
1099.9,1810.7,21135.0,4.7315e-05,56.427,64.994,102.62,42.421,68.557,988.79,0.043071,61.158,0.34705,supercritical,H2O,C7732185,water,647.0,220.64,17.9,0.0558659217877095,1.6999999999999997,8.20658085569253,0.0008469384999999999
1099.9,1818.0,21202.0,4.7165e-05,56.398,64.973,102.57,42.435,68.569,990.46,0.042726,61.245,0.34798,supercritical,H2O,C7732185,water,647.0,220.64,17.9,0.0558659217877095,1.6999999999999997,8.239666424945613,0.0008442535
1099.9,1825.4,21269.0,4.7016e-05,56.369,64.951,102.52,42.448,68.58,992.13,0.042384,61.332,0.34889,supercritical,H2O,C7732185,water,647.0,220.64,17.9,0.0558659217877095,1.6999999999999997,8.273205221174765,0.0008415863999999999
1099.9,1832.7,21336.0,4.6869e-05,56.34,64.93,102.47,42.462,68.591,993.81,0.042044,61.419,0.34981,supercritical,H2O,C7732185,water,647.0,220.64,17.9,0.0558659217877095,1.6999999999999997,8.306290790427846,0.0008389551
1099.9,1840.1,21403.0,4.6723e-05,56.312,64.909,102.42,42.475,68.601,995.48,0.041706,61.506,0.35073,supercritical,H2O,C7732185,water,647.0,220.64,17.9,0.0558659217877095,1.6999999999999997,8.339829586656998,0.0008363416999999999
1099.9,1847.4,21469.0,4.6579e-05,56.283,64.888,102.36,42.488,68.611,997.16,0.041371,61.593,0.35164,supercritical,H2O,C7732185,water,647.0,220.64,17.9,0.0558659217877095,1.6999999999999997,8.37291515591008,0.0008337641
1099.9,1854.8,21535.0,4.6436e-05,56.254,64.867,102.31,42.501,68.621,998.84,0.041039,61.68,0.35255,supercritical,H2O,C7732185,water,647.0,220.64,17.9,0.0558659217877095,1.6999999999999997,8.406453952139232,0.0008312043999999999
1099.9,1862.1,21601.0,4.6294e-05,56.226,64.847,102.27,42.515,68.63,1000.5,0.040709,61.766,0.35346,supercritical,H2O,C7732185,water,647.0,220.64,17.9,0.0558659217877095,1.6999999999999997,8.439539521392314,0.0008286626
1099.9,1869.5,21667.0,4.6154e-05,56.198,64.826,102.22,42.528,68.639,1002.2,0.040381,61.853,0.35436,supercritical,H2O,C7732185,water,647.0,220.64,17.9,0.0558659217877095,1.6999999999999997,8.473078317621466,0.0008261566
1099.9,1876.8,21732.0,4.6015e-05,56.17,64.806,102.17,42.54,68.647,1003.9,0.040056,61.939,0.35527,supercritical,H2O,C7732185,water,647.0,220.64,17.9,0.0558659217877095,1.6999999999999997,8.506163886874548,0.0008236684999999999
1099.9,1884.2,21797.0,4.5877e-05,56.142,64.786,102.12,42.553,68.655,1005.6,0.039734,62.026,0.35617,supercritical,H2O,C7732185,water,647.0,220.64,17.9,0.0558659217877095,1.6999999999999997,8.5397026831037,0.0008211983
1099.9,1891.5,21862.0,4.5741e-05,56.114,64.766,102.07,42.566,68.663,1007.2,0.039414,62.112,0.35707,supercritical,H2O,C7732185,water,647.0,220.64,17.9,0.0558659217877095,1.6999999999999997,8.57278825235678,0.0008187639
1099.9,1898.9,21927.0,4.5606e-05,56.086,64.746,102.02,42.579,68.67,1008.9,0.039096,62.199,0.35796,supercritical,H2O,C7732185,water,647.0,220.64,17.9,0.0558659217877095,1.6999999999999997,8.606327048585932,0.0008163473999999998
1099.9,1906.2,21991.0,4.5472e-05,56.058,64.726,101.97,42.591,68.677,1010.6,0.03878,62.285,0.35886,supercritical,H2O,C7732185,water,647.0,220.64,17.9,0.0558659217877095,1.6999999999999997,8.639412617839014,0.0008139487999999999
1099.9,1913.6,22056.0,4.534e-05,56.031,64.707,101.92,42.604,68.684,1012.3,0.038467,62.371,0.35975,supercritical,H2O,C7732185,water,647.0,220.64,17.9,0.0558659217877095,1.6999999999999997,8.672951414068166,0.000811586
1099.9,1920.9,22120.0,4.5208e-05,56.003,64.688,101.88,42.616,68.69,1014.0,0.038157,62.457,0.36064,supercritical,H2O,C7732185,water,647.0,220.64,17.9,0.0558659217877095,1.6999999999999997,8.706036983321248,0.0008092231999999999
1099.9,1928.3,22184.0,4.5078e-05,55.976,64.668,101.83,42.629,68.697,1015.7,0.037848,62.543,0.36153,supercritical,H2O,C7732185,water,647.0,220.64,17.9,0.0558659217877095,1.6999999999999997,8.7395757795504,0.0008068961999999999
1099.9,1935.6,22247.0,4.4949e-05,55.949,64.649,101.78,42.641,68.702,1017.3,0.037542,62.629,0.36242,supercritical,H2O,C7732185,water,647.0,220.64,17.9,0.0558659217877095,1.6999999999999997,8.772661348803481,0.0008045871
1099.9,1943.0,22311.0,4.4822e-05,55.922,64.63,101.73,42.654,68.708,1019.0,0.037238,62.714,0.3633,supercritical,H2O,C7732185,water,647.0,220.64,17.9,0.0558659217877095,1.6999999999999997,8.806200145032633,0.0008023138
1099.9,1950.3,22374.0,4.4695e-05,55.895,64.612,101.69,42.666,68.713,1020.7,0.036937,62.8,0.36419,supercritical,H2O,C7732185,water,647.0,220.64,17.9,0.0558659217877095,1.6999999999999997,8.839285714285715,0.0008000404999999999