Temperature (K),Pressure (bar),Density (mol/m3),Volume (m3/mol),Internal Energy (kJ/mol),Enthalpy (kJ/mol),Entropy (J/mol*K),Cv (J/mol*K),Cp (J/mol*K),Sound Spd. (m/s),Joule-Thomson (K/bar),Viscosity (uPa*s),Therm. Cond. (W/m*K),Phase,substance,substance_id,substance_name,Tc,Pc,rhoc,Vmc,Tr,Pr,Vmr
241.38,452.51,20753.0,4.8187e-05,0.025178,2.2057,90.58,15.236,37.133,537.08,0.0074374,55.981,0.053355,supercritical,Ar,C7440371,argon,150.86,48.9805,13.41,0.07457121551081282,1.6,9.238574534763835,0.00064618767
241.38,454.14,20787.0,4.8107e-05,0.020507,2.2052,90.545,15.24,37.107,538.12,0.0070046,56.12,0.053469,supercritical,Ar,C7440371,argon,150.86,48.9805,13.41,0.07457121551081282,1.6,9.271853084390727,0.00064511487
241.38,455.77,20821.0,4.8028e-05,0.01586,2.2048,90.511,15.244,37.08,539.15,0.0065757,56.258,0.053582,supercritical,Ar,C7440371,argon,150.86,48.9805,13.41,0.07457121551081282,1.6,9.305131634017618,0.0006440554800000001
241.38,457.4,20855.0,4.7949e-05,0.011235,2.2044,90.477,15.248,37.054,540.18,0.0061506,56.396,0.053696,supercritical,Ar,C7440371,argon,150.86,48.9805,13.41,0.07457121551081282,1.6,9.33841018364451,0.00064299609
241.38,459.03,20889.0,4.7871e-05,0.0066323,2.2041,90.443,15.252,37.028,541.2,0.0057292,56.534,0.053809,supercritical,Ar,C7440371,argon,150.86,48.9805,13.41,0.07457121551081282,1.6,9.371688733271403,0.0006419501100000001
241.38,460.66,20923.0,4.7794e-05,0.0020523,2.2037,90.41,15.256,37.002,542.23,0.0053114,56.672,0.053922,supercritical,Ar,C7440371,argon,150.86,48.9805,13.41,0.07457121551081282,1.6,9.404967282898298,0.00064091754
241.38,462.29,20957.0,4.7718e-05,-0.0025055,2.2034,90.376,15.26,36.977,543.25,0.0048974,56.81,0.054034,supercritical,Ar,C7440371,argon,150.86,48.9805,13.41,0.07457121551081282,1.6,9.438245832525189,0.0006398983800000001
241.38,463.92,20990.0,4.7642e-05,-0.0070413,2.2032,90.343,15.264,36.951,544.27,0.0044869,56.948,0.054147,supercritical,Ar,C7440371,argon,150.86,48.9805,13.41,0.07457121551081282,1.6,9.471524382152081,0.0006388792200000001
241.38,465.55,21023.0,4.7566e-05,-0.011555,2.2029,90.309,15.269,36.926,545.28,0.0040799,57.085,0.054259,supercritical,Ar,C7440371,argon,150.86,48.9805,13.41,0.07457121551081282,1.6,9.504802931778974,0.00063786006
241.38,467.18,21056.0,4.7492e-05,-0.016048,2.2027,90.276,15.273,36.9,546.3,0.0036765,57.223,0.054371,supercritical,Ar,C7440371,argon,150.86,48.9805,13.41,0.07457121551081282,1.6,9.538081481405866,0.00063686772
241.38,468.81,21089.0,4.7417e-05,-0.020518,2.2025,90.243,15.277,36.875,547.31,0.0032765,57.36,0.054483,supercritical,Ar,C7440371,argon,150.86,48.9805,13.41,0.07457121551081282,1.6,9.571360031032759,0.0006358619700000001
241.38,470.44,21122.0,4.7344e-05,-0.024968,2.2023,90.211,15.281,36.85,548.32,0.0028799,57.497,0.054595,supercritical,Ar,C7440371,argon,150.86,48.9805,13.41,0.07457121551081282,1.6,9.60463858065965,0.0006348830400000001
241.38,472.07,21155.0,4.7271e-05,-0.029396,2.2021,90.178,15.285,36.825,549.33,0.0024867,57.634,0.054706,supercritical,Ar,C7440371,argon,150.86,48.9805,13.41,0.07457121551081282,1.6,9.637917130286542,0.0006339041100000001
241.38,473.7,21187.0,4.7198e-05,-0.033804,2.202,90.146,15.289,36.8,550.33,0.0020969,57.771,0.054817,supercritical,Ar,C7440371,argon,150.86,48.9805,13.41,0.07457121551081282,1.6,9.671195679913435,0.00063292518
241.38,475.33,21220.0,4.7126e-05,-0.038191,2.2019,90.113,15.293,36.776,551.33,0.0017104,57.907,0.054928,supercritical,Ar,C7440371,argon,150.86,48.9805,13.41,0.07457121551081282,1.6,9.704474229540327,0.00063195966
241.38,476.96,21252.0,4.7055e-05,-0.042557,2.2018,90.081,15.297,36.751,552.33,0.0013271,58.044,0.055039,supercritical,Ar,C7440371,argon,150.86,48.9805,13.41,0.07457121551081282,1.6,9.73775277916722,0.0006310075500000001
241.38,478.59,21284.0,4.6984e-05,-0.046903,2.2017,90.049,15.302,36.727,553.33,0.00094708,58.18,0.055149,supercritical,Ar,C7440371,argon,150.86,48.9805,13.41,0.07457121551081282,1.6,9.77103132879411,0.0006300554400000001
241.38,480.22,21316.0,4.6913e-05,-0.051229,2.2017,90.017,15.306,36.703,554.33,0.00057023,58.317,0.055259,supercritical,Ar,C7440371,argon,150.86,48.9805,13.41,0.07457121551081282,1.6,9.804309878421005,0.0006291033300000001
241.38,481.85,21348.0,4.6844e-05,-0.055534,2.2016,89.985,15.31,36.679,555.32,0.00019653,58.453,0.055369,supercritical,Ar,C7440371,argon,150.86,48.9805,13.41,0.07457121551081282,1.6,9.837588428047898,0.0006281780400000001
241.38,483.48,21379.0,4.6774e-05,-0.05982,2.2016,89.954,15.314,36.655,556.31,-0.00017405,58.589,0.055479,supercritical,Ar,C7440371,argon,150.86,48.9805,13.41,0.07457121551081282,1.6,9.870866977674789,0.0006272393400000001
241.38,485.11,21411.0,4.6706e-05,-0.064086,2.2016,89.922,15.318,36.631,557.3,-0.00054156,58.725,0.055589,supercritical,Ar,C7440371,argon,150.86,48.9805,13.41,0.07457121551081282,1.6,9.904145527301681,0.0006263274600000001
241.38,486.74,21442.0,4.6637e-05,-0.068332,2.2017,89.891,15.322,36.607,558.28,-0.00090602,58.86,0.055698,supercritical,Ar,C7440371,argon,150.86,48.9805,13.41,0.07457121551081282,1.6,9.937424076928574,0.00062540217
241.38,488.37,21473.0,4.657e-05,-0.072559,2.2018,89.86,15.326,36.583,559.27,-0.0012675,58.996,0.055808,supercritical,Ar,C7440371,argon,150.86,48.9805,13.41,0.07457121551081282,1.6,9.970702626555466,0.0006245037000000001
241.38,490.0,21504.0,4.6502e-05,-0.076767,2.2018,89.829,15.33,36.56,560.25,-0.001626,59.131,0.055917,supercritical,Ar,C7440371,argon,150.86,48.9805,13.41,0.07457121551081282,1.6,10.003981176182359,0.0006235918200000001
241.38,491.63,21535.0,4.6435e-05,-0.080955,2.202,89.798,15.335,36.537,561.23,-0.0019815,59.266,0.056026,supercritical,Ar,C7440371,argon,150.86,48.9805,13.41,0.07457121551081282,1.6,10.037259725809252,0.00062269335
241.38,493.26,21566.0,4.6369e-05,-0.085125,2.2021,89.767,15.339,36.513,562.21,-0.0023341,59.401,0.056134,supercritical,Ar,C7440371,argon,150.86,48.9805,13.41,0.07457121551081282,1.6,10.070538275436142,0.0006218082900000001
241.38,494.89,21597.0,4.6303e-05,-0.089275,2.2022,89.736,15.343,36.49,563.18,-0.0026839,59.536,0.056243,supercritical,Ar,C7440371,argon,150.86,48.9805,13.41,0.07457121551081282,1.6,10.103816825063035,0.0006209232300000001
241.38,496.52,21627.0,4.6238e-05,-0.093408,2.2024,89.706,15.347,36.467,564.15,-0.0030308,59.671,0.056351,supercritical,Ar,C7440371,argon,150.86,48.9805,13.41,0.07457121551081282,1.6,10.137095374689927,0.0006200515800000001
241.38,498.15,21658.0,4.6173e-05,-0.097521,2.2026,89.675,15.351,36.444,565.12,-0.003375,59.806,0.056459,supercritical,Ar,C7440371,argon,150.86,48.9805,13.41,0.07457121551081282,1.6,10.17037392431682,0.00061917993
241.38,499.78,21688.0,4.6109e-05,-0.10162,2.2028,89.645,15.355,36.422,566.09,-0.0037163,59.94,0.056567,supercritical,Ar,C7440371,argon,150.86,48.9805,13.41,0.07457121551081282,1.6,10.203652473943713,0.0006183216900000001
241.38,501.41,21718.0,4.6045e-05,-0.10569,2.203,89.615,15.359,36.399,567.06,-0.0040549,60.075,0.056675,supercritical,Ar,C7440371,argon,150.86,48.9805,13.41,0.07457121551081282,1.6,10.236931023570605,0.00061746345
241.38,503.04,21748.0,4.5981e-05,-0.10975,2.2033,89.585,15.363,36.376,568.02,-0.0043908,60.209,0.056782,supercritical,Ar,C7440371,argon,150.86,48.9805,13.41,0.07457121551081282,1.6,10.270209573197498,0.00061660521
241.38,504.67,21778.0,4.5918e-05,-0.11379,2.2035,89.555,15.368,36.354,568.98,-0.004724,60.343,0.056889,supercritical,Ar,C7440371,argon,150.86,48.9805,13.41,0.07457121551081282,1.6,10.30348812282439,0.0006157603800000001
241.38,506.3,21808.0,4.5855e-05,-0.11782,2.2038,89.525,15.372,36.332,569.94,-0.0050545,60.477,0.056996,supercritical,Ar,C7440371,argon,150.86,48.9805,13.41,0.07457121551081282,1.6,10.336766672451281,0.00061491555
241.38,507.93,21837.0,4.5793e-05,-0.12182,2.2041,89.496,15.376,36.31,570.9,-0.0053825,60.611,0.057103,supercritical,Ar,C7440371,argon,150.86,48.9805,13.41,0.07457121551081282,1.6,10.370045222078174,0.0006140841300000001
241.38,509.56,21867.0,4.5731e-05,-0.12581,2.2045,89.466,15.38,36.288,571.85,-0.0057078,60.744,0.05721,supercritical,Ar,C7440371,argon,150.86,48.9805,13.41,0.07457121551081282,1.6,10.403323771705066,0.0006132527100000001
241.38,511.19,21896.0,4.567e-05,-0.12978,2.2048,89.437,15.384,36.266,572.81,-0.0060306,60.878,0.057317,supercritical,Ar,C7440371,argon,150.86,48.9805,13.41,0.07457121551081282,1.6,10.436602321331959,0.0006124347
241.38,512.82,21925.0,4.5609e-05,-0.13373,2.2052,89.407,15.388,36.244,573.76,-0.0063508,61.011,0.057423,supercritical,Ar,C7440371,argon,150.86,48.9805,13.41,0.07457121551081282,1.6,10.469880870958852,0.0006116166900000001
241.38,514.45,21955.0,4.5549e-05,-0.13767,2.2056,89.378,15.392,36.222,574.71,-0.0066685,61.144,0.057529,supercritical,Ar,C7440371,argon,150.86,48.9805,13.41,0.07457121551081282,1.6,10.503159420585744,0.00061081209
241.38,516.08,21984.0,4.5488e-05,-0.14159,2.206,89.349,15.396,36.201,575.65,-0.0069837,61.277,0.057635,supercritical,Ar,C7440371,argon,150.86,48.9805,13.41,0.07457121551081282,1.6,10.536437970212637,0.0006099940800000001
241.38,517.71,22013.0,4.5429e-05,-0.14549,2.2064,89.32,15.401,36.179,576.6,-0.0072965,61.41,0.057741,supercritical,Ar,C7440371,argon,150.86,48.9805,13.41,0.07457121551081282,1.6,10.56971651983953,0.0006092028900000001
241.38,519.34,22041.0,4.5369e-05,-0.14938,2.2068,89.291,15.405,36.158,577.54,-0.0076069,61.543,0.057847,supercritical,Ar,C7440371,argon,150.86,48.9805,13.41,0.07457121551081282,1.6,10.602995069466422,0.00060839829
241.38,520.97,22070.0,4.5311e-05,-0.15325,2.2073,89.262,15.409,36.137,578.48,-0.0079148,61.676,0.057952,supercritical,Ar,C7440371,argon,150.86,48.9805,13.41,0.07457121551081282,1.6,10.636273619093313,0.00060762051
241.38,522.6,22098.0,4.5252e-05,-0.1571,2.2078,89.234,15.413,36.116,579.42,-0.0082204,61.808,0.058058,supercritical,Ar,C7440371,argon,150.86,48.9805,13.41,0.07457121551081282,1.6,10.669552168720205,0.00060682932
241.38,524.23,22127.0,4.5194e-05,-0.16094,2.2083,89.205,15.417,36.095,580.35,-0.0085236,61.94,0.058163,supercritical,Ar,C7440371,argon,150.86,48.9805,13.41,0.07457121551081282,1.6,10.702830718347098,0.00060605154
241.38,525.86,22155.0,4.5136e-05,-0.16476,2.2088,89.177,15.421,36.074,581.29,-0.0088245,62.072,0.058268,supercritical,Ar,C7440371,argon,150.86,48.9805,13.41,0.07457121551081282,1.6,10.73610926797399,0.0006052737600000001
241.38,527.49,22183.0,4.5079e-05,-0.16856,2.2093,89.149,15.425,36.053,582.22,-0.0091231,62.204,0.058373,supercritical,Ar,C7440371,argon,150.86,48.9805,13.41,0.07457121551081282,1.6,10.769387817600883,0.0006045093900000001
241.38,529.12,22211.0,4.5022e-05,-0.17235,2.2098,89.121,15.429,36.032,583.15,-0.0094194,62.336,0.058477,supercritical,Ar,C7440371,argon,150.86,48.9805,13.41,0.07457121551081282,1.6,10.802666367227774,0.0006037450200000001
241.38,530.75,22239.0,4.4965e-05,-0.17612,2.2104,89.092,15.433,36.012,584.08,-0.0097135,62.468,0.058582,supercritical,Ar,C7440371,argon,150.86,48.9805,13.41,0.07457121551081282,1.6,10.835944916854666,0.00060298065
241.38,532.38,22267.0,4.4909e-05,-0.17988,2.211,89.065,15.438,35.991,585.0,-0.010005,62.6,0.058686,supercritical,Ar,C7440371,argon,150.86,48.9805,13.41,0.07457121551081282,1.6,10.869223466481559,0.0006022296900000001
241.38,534.01,22295.0,4.4853e-05,-0.18362,2.2116,89.037,15.442,35.971,585.93,-0.010295,62.731,0.05879,supercritical,Ar,C7440371,argon,150.86,48.9805,13.41,0.07457121551081282,1.6,10.902502016108452,0.00060147873
241.38,535.64,22323.0,4.4798e-05,-0.18734,2.2122,89.009,15.446,35.951,586.85,-0.010582,62.862,0.058894,supercritical,Ar,C7440371,argon,150.86,48.9805,13.41,0.07457121551081282,1.6,10.935780565735344,0.00060074118
241.38,537.27,22350.0,4.4742e-05,-0.19105,2.2128,88.981,15.45,35.931,587.77,-0.010868,62.993,0.058998,supercritical,Ar,C7440371,argon,150.86,48.9805,13.41,0.07457121551081282,1.6,10.969059115362235,0.0005999902200000001
241.38,538.9,22378.0,4.4688e-05,-0.19475,2.2135,88.954,15.454,35.911,588.69,-0.011151,63.124,0.059102,supercritical,Ar,C7440371,argon,150.86,48.9805,13.41,0.07457121551081282,1.6,11.002337664989128,0.0005992660800000001
241.38,540.53,22405.0,4.4633e-05,-0.19843,2.2141,88.926,15.458,35.891,589.6,-0.011432,63.255,0.059205,supercritical,Ar,C7440371,argon,150.86,48.9805,13.41,0.07457121551081282,1.6,11.03561621461602,0.00059852853
241.38,542.16,22432.0,4.4579e-05,-0.20209,2.2148,88.899,15.462,35.871,590.52,-0.011711,63.386,0.059309,supercritical,Ar,C7440371,argon,150.86,48.9805,13.41,0.07457121551081282,1.6,11.068894764242913,0.00059780439
241.38,543.79,22459.0,4.4525e-05,-0.20574,2.2155,88.872,15.466,35.851,591.43,-0.011988,63.516,0.059412,supercritical,Ar,C7440371,argon,150.86,48.9805,13.41,0.07457121551081282,1.6,11.102173313869805,0.00059708025
241.38,545.42,22486.0,4.4472e-05,-0.20938,2.2162,88.845,15.47,35.832,592.34,-0.012263,63.647,0.059515,supercritical,Ar,C7440371,argon,150.86,48.9805,13.41,0.07457121551081282,1.6,11.135451863496696,0.00059636952
241.38,547.05,22513.0,4.4419e-05,-0.213,2.2169,88.818,15.474,35.812,593.24,-0.012535,63.777,0.059618,supercritical,Ar,C7440371,argon,150.86,48.9805,13.41,0.07457121551081282,1.6,11.168730413123589,0.0005956587900000001
241.38,548.68,22540.0,4.4366e-05,-0.2166,2.2177,88.791,15.479,35.793,594.15,-0.012806,63.907,0.05972,supercritical,Ar,C7440371,argon,150.86,48.9805,13.41,0.07457121551081282,1.6,11.202008962750481,0.0005949480600000001
241.38,550.31,22567.0,4.4313e-05,-0.22019,2.2184,88.764,15.483,35.774,595.05,-0.013075,64.037,0.059823,supercritical,Ar,C7440371,argon,150.86,48.9805,13.41,0.07457121551081282,1.6,11.235287512377374,0.00059423733
241.38,551.94,22593.0,4.4261e-05,-0.22377,2.2192,88.737,15.487,35.755,595.96,-0.013342,64.166,0.059925,supercritical,Ar,C7440371,argon,150.86,48.9805,13.41,0.07457121551081282,1.6,11.268566062004268,0.0005935400100000001
241.38,553.57,22620.0,4.421e-05,-0.22733,2.22,88.711,15.491,35.735,596.86,-0.013607,64.296,0.060028,supercritical,Ar,C7440371,argon,150.86,48.9805,13.41,0.07457121551081282,1.6,11.30184461163116,0.0005928561
241.38,555.2,22646.0,4.4158e-05,-0.23088,2.2208,88.684,15.495,35.717,597.76,-0.01387,64.425,0.06013,supercritical,Ar,C7440371,argon,150.86,48.9805,13.41,0.07457121551081282,1.6,11.335123161258053,0.0005921587800000001
241.38,556.83,22672.0,4.4107e-05,-0.23441,2.2216,88.658,15.499,35.698,598.65,-0.014131,64.555,0.060232,supercritical,Ar,C7440371,argon,150.86,48.9805,13.41,0.07457121551081282,1.6,11.368401710884944,0.0005914748700000001
241.38,558.46,22698.0,4.4056e-05,-0.23793,2.2224,88.631,15.503,35.679,599.55,-0.01439,64.684,0.060334,supercritical,Ar,C7440371,argon,150.86,48.9805,13.41,0.07457121551081282,1.6,11.401680260511837,0.0005907909600000001
241.38,560.09,22724.0,4.4005e-05,-0.24144,2.2233,88.605,15.507,35.66,600.44,-0.014647,64.813,0.060435,supercritical,Ar,C7440371,argon,150.86,48.9805,13.41,0.07457121551081282,1.6,11.43495881013873,0.0005901070500000001
241.38,561.72,22750.0,4.3955e-05,-0.24493,2.2241,88.579,15.511,35.642,601.33,-0.014903,64.942,0.060537,supercritical,Ar,C7440371,argon,150.86,48.9805,13.41,0.07457121551081282,1.6,11.468237359765622,0.0005894365500000001
241.38,563.35,22776.0,4.3905e-05,-0.24841,2.225,88.553,15.515,35.623,602.22,-0.015156,65.07,0.060638,supercritical,Ar,C7440371,argon,150.86,48.9805,13.41,0.07457121551081282,1.6,11.501515909392515,0.00058876605
241.38,564.98,22802.0,4.3856e-05,-0.25187,2.2259,88.527,15.519,35.605,603.1,-0.015408,65.199,0.060739,supercritical,Ar,C7440371,argon,150.86,48.9805,13.41,0.07457121551081282,1.6,11.534794459019405,0.0005881089600000001
241.38,566.61,22828.0,4.3806e-05,-0.25532,2.2268,88.501,15.524,35.586,603.99,-0.015658,65.327,0.060841,supercritical,Ar,C7440371,argon,150.86,48.9805,13.41,0.07457121551081282,1.6,11.568073008646298,0.00058743846
241.38,568.24,22853.0,4.3757e-05,-0.25876,2.2277,88.475,15.528,35.568,604.87,-0.015907,65.456,0.060941,supercritical,Ar,C7440371,argon,150.86,48.9805,13.41,0.07457121551081282,1.6,11.60135155827319,0.0005867813700000001
241.38,569.87,22879.0,4.3708e-05,-0.26218,2.2286,88.45,15.532,35.55,605.75,-0.016153,65.584,0.061042,supercritical,Ar,C7440371,argon,150.86,48.9805,13.41,0.07457121551081282,1.6,11.634630107900083,0.0005861242800000001
241.38,571.5,22904.0,4.366e-05,-0.26559,2.2296,88.424,15.536,35.532,606.63,-0.016398,65.712,0.061143,supercritical,Ar,C7440371,argon,150.86,48.9805,13.41,0.07457121551081282,1.6,11.667908657526976,0.0005854806000000001
241.38,573.13,22930.0,4.3612e-05,-0.26899,2.2305,88.399,15.54,35.514,607.51,-0.016641,65.839,0.061244,supercritical,Ar,C7440371,argon,150.86,48.9805,13.41,0.07457121551081282,1.6,11.701187207153868,0.00058483692
241.38,574.76,22955.0,4.3564e-05,-0.27238,2.2315,88.373,15.544,35.496,608.39,-0.016882,65.967,0.061344,supercritical,Ar,C7440371,argon,150.86,48.9805,13.41,0.07457121551081282,1.6,11.734465756780759,0.00058419324
241.38,576.39,22980.0,4.3516e-05,-0.27575,2.2325,88.348,15.548,35.479,609.26,-0.017122,66.094,0.061444,supercritical,Ar,C7440371,argon,150.86,48.9805,13.41,0.07457121551081282,1.6,11.767744306407652,0.0005835495600000001
241.38,578.02,23005.0,4.3469e-05,-0.27911,2.2335,88.323,15.552,35.461,610.13,-0.01736,66.222,0.061544,supercritical,Ar,C7440371,argon,150.86,48.9805,13.41,0.07457121551081282,1.6,11.801022856034544,0.00058291929
241.38,579.65,23030.0,4.3422e-05,-0.28245,2.2345,88.297,15.556,35.443,611.0,-0.017596,66.349,0.061644,supercritical,Ar,C7440371,argon,150.86,48.9805,13.41,0.07457121551081282,1.6,11.834301405661437,0.0005822890200000001
241.38,581.28,23055.0,4.3375e-05,-0.28579,2.2355,88.272,15.56,35.426,611.87,-0.017831,66.476,0.061744,supercritical,Ar,C7440371,argon,150.86,48.9805,13.41,0.07457121551081282,1.6,11.86757995528833,0.00058165875
241.38,582.91,23080.0,4.3328e-05,-0.28911,2.2365,88.247,15.564,35.409,612.74,-0.018064,66.603,0.061844,supercritical,Ar,C7440371,argon,150.86,48.9805,13.41,0.07457121551081282,1.6,11.90085850491522,0.0005810284800000001
241.38,584.54,23104.0,4.3282e-05,-0.29241,2.2376,88.222,15.568,35.391,613.6,-0.018295,66.73,0.061943,supercritical,Ar,C7440371,argon,150.86,48.9805,13.41,0.07457121551081282,1.6,11.934137054542113,0.0005804116200000001
241.38,586.17,23129.0,4.3236e-05,-0.29571,2.2387,88.198,15.572,35.374,614.47,-0.018525,66.856,0.062043,supercritical,Ar,C7440371,argon,150.86,48.9805,13.41,0.07457121551081282,1.6,11.967415604169005,0.00057979476
241.38,587.8,23153.0,4.319e-05,-0.29899,2.2397,88.173,15.576,35.357,615.33,-0.018753,66.983,0.062142,supercritical,Ar,C7440371,argon,150.86,48.9805,13.41,0.07457121551081282,1.6,12.000694153795898,0.0005791779
241.38,589.43,23178.0,4.3145e-05,-0.30226,2.2408,88.148,15.58,35.34,616.19,-0.01898,67.109,0.062241,supercritical,Ar,C7440371,argon,150.86,48.9805,13.41,0.07457121551081282,1.6,12.03397270342279,0.00057857445
241.38,591.06,23202.0,4.31e-05,-0.30552,2.2419,88.124,15.585,35.323,617.05,-0.019205,67.235,0.06234,supercritical,Ar,C7440371,argon,150.86,48.9805,13.41,0.07457121551081282,1.6,12.067251253049681,0.000577971
241.38,592.69,23226.0,4.3055e-05,-0.30877,2.243,88.099,15.589,35.306,617.9,-0.019429,67.361,0.062439,supercritical,Ar,C7440371,argon,150.86,48.9805,13.41,0.07457121551081282,1.6,12.100529802676578,0.00057736755
241.38,594.32,23250.0,4.301e-05,-0.312,2.2442,88.075,15.593,35.289,618.76,-0.019651,67.487,0.062538,supercritical,Ar,C7440371,argon,150.86,48.9805,13.41,0.07457121551081282,1.6,12.133808352303468,0.0005767641000000002
241.38,595.95,23275.0,4.2965e-05,-0.31523,2.2453,88.051,15.597,35.273,619.61,-0.019872,67.612,0.062637,supercritical,Ar,C7440371,argon,150.86,48.9805,13.41,0.07457121551081282,1.6,12.167086901930361,0.00057616065
241.38,597.58,23299.0,4.2921e-05,-0.31844,2.2464,88.026,15.601,35.256,620.46,-0.020091,67.738,0.062735,supercritical,Ar,C7440371,argon,150.86,48.9805,13.41,0.07457121551081282,1.6,12.200365451557253,0.00057557061
241.38,599.21,23322.0,4.2877e-05,-0.32164,2.2476,88.002,15.605,35.24,621.31,-0.020308,67.863,0.062834,supercritical,Ar,C7440371,argon,150.86,48.9805,13.41,0.07457121551081282,1.6,12.233644001184146,0.0005749805700000001