Temperature (K),Pressure (bar),Density (mol/m3),Volume (m3/mol),Internal Energy (kJ/mol),Enthalpy (kJ/mol),Entropy (J/mol*K),Cv (J/mol*K),Cp (J/mol*K),Sound Spd. (m/s),Joule-Thomson (K/bar),Viscosity (uPa*s),Therm. Cond. (W/m*K),Phase,substance,substance_id,substance_name,Tc,Pc,rhoc,Vmc,Tr,Pr,Vmr
577.94,227.17,4891.1,0.00020445,27.414,32.059,100.08,40.054,55.674,386.14,0.14058,31.599,0.048092,supercritical,CO2,C124389,carbon-dioxide,304.18,73.8,10.6,0.09433962264150944,1.9,3.0781842818428182,0.00216717
577.94,229.62,4943.1,0.0002023,27.394,32.04,99.962,40.068,55.758,386.67,0.13963,31.673,0.048214,supercritical,CO2,C124389,carbon-dioxide,304.18,73.8,10.6,0.09433962264150944,1.9,3.1113821138211386,0.00214438
577.94,232.08,4995.1,0.0002002,27.374,32.021,99.843,40.082,55.842,387.2,0.13867,31.747,0.048337,supercritical,CO2,C124389,carbon-dioxide,304.18,73.8,10.6,0.09433962264150944,1.9,3.144715447154472,0.00212212
577.94,234.54,5046.9,0.00019814,27.354,32.002,99.726,40.096,55.925,387.74,0.13772,31.822,0.04846,supercritical,CO2,C124389,carbon-dioxide,304.18,73.8,10.6,0.09433962264150944,1.9,3.178048780487805,0.002100284
577.94,237.0,5098.7,0.00019613,27.334,31.983,99.609,40.109,56.008,388.29,0.13677,31.898,0.048584,supercritical,CO2,C124389,carbon-dioxide,304.18,73.8,10.6,0.09433962264150944,1.9,3.2113821138211383,0.002078978
577.94,239.46,5150.4,0.00019416,27.315,31.964,99.494,40.123,56.09,388.84,0.13582,31.974,0.048709,supercritical,CO2,C124389,carbon-dioxide,304.18,73.8,10.6,0.09433962264150944,1.9,3.244715447154472,0.0020580959999999997
577.94,241.92,5202.0,0.00019223,27.295,31.945,99.379,40.136,56.171,389.4,0.13487,32.051,0.048834,supercritical,CO2,C124389,carbon-dioxide,304.18,73.8,10.6,0.09433962264150944,1.9,3.2780487804878047,0.0020376379999999996
577.94,244.37,5253.5,0.00019035,27.275,31.927,99.266,40.149,56.252,389.97,0.13392,32.128,0.048959,supercritical,CO2,C124389,carbon-dioxide,304.18,73.8,10.6,0.09433962264150944,1.9,3.311246612466125,0.00201771
577.94,246.83,5304.9,0.0001885,27.255,31.908,99.153,40.163,56.332,390.54,0.13297,32.206,0.049086,supercritical,CO2,C124389,carbon-dioxide,304.18,73.8,10.6,0.09433962264150944,1.9,3.3445799457994583,0.0019981
577.94,249.29,5356.3,0.0001867,27.236,31.89,99.042,40.176,56.412,391.12,0.13203,32.284,0.049212,supercritical,CO2,C124389,carbon-dioxide,304.18,73.8,10.6,0.09433962264150944,1.9,3.3779132791327915,0.00197902
577.94,251.75,5407.5,0.00018493,27.216,31.872,98.931,40.189,56.491,391.71,0.13108,32.363,0.049339,supercritical,CO2,C124389,carbon-dioxide,304.18,73.8,10.6,0.09433962264150944,1.9,3.4112466124661247,0.001960258
577.94,254.21,5458.6,0.0001832,27.196,31.853,98.821,40.202,56.569,392.3,0.13014,32.442,0.049467,supercritical,CO2,C124389,carbon-dioxide,304.18,73.8,10.6,0.09433962264150944,1.9,3.4445799457994584,0.00194192
577.94,256.67,5509.6,0.0001815,27.177,31.835,98.713,40.215,56.647,392.89,0.1292,32.522,0.049596,supercritical,CO2,C124389,carbon-dioxide,304.18,73.8,10.6,0.09433962264150944,1.9,3.4779132791327916,0.0019238999999999999
577.94,259.12,5560.5,0.00017984,27.157,31.817,98.605,40.228,56.724,393.5,0.12827,32.602,0.049724,supercritical,CO2,C124389,carbon-dioxide,304.18,73.8,10.6,0.09433962264150944,1.9,3.5111111111111115,0.001906304
577.94,261.58,5611.4,0.00017821,27.138,31.8,98.498,40.24,56.8,394.1,0.12733,32.683,0.049854,supercritical,CO2,C124389,carbon-dioxide,304.18,73.8,10.6,0.09433962264150944,1.9,3.5444444444444443,0.0018890259999999998
577.94,264.04,5662.1,0.00017661,27.119,31.782,98.392,40.253,56.876,394.72,0.1264,32.764,0.049983,supercritical,CO2,C124389,carbon-dioxide,304.18,73.8,10.6,0.09433962264150944,1.9,3.5777777777777784,0.001872066
577.94,266.5,5712.7,0.00017505,27.099,31.764,98.286,40.265,56.952,395.34,0.12547,32.846,0.050114,supercritical,CO2,C124389,carbon-dioxide,304.18,73.8,10.6,0.09433962264150944,1.9,3.611111111111111,0.0018555299999999998
577.94,268.96,5763.2,0.00017352,27.08,31.747,98.182,40.278,57.026,395.97,0.12454,32.928,0.050244,supercritical,CO2,C124389,carbon-dioxide,304.18,73.8,10.6,0.09433962264150944,1.9,3.6444444444444444,0.0018393119999999998
577.94,271.42,5813.6,0.00017201,27.061,31.729,98.078,40.29,57.101,396.6,0.12361,33.011,0.050376,supercritical,CO2,C124389,carbon-dioxide,304.18,73.8,10.6,0.09433962264150944,1.9,3.677777777777778,0.0018233059999999998
577.94,273.87,5863.8,0.00017054,27.041,31.712,97.976,40.303,57.174,397.24,0.12269,33.095,0.050507,supercritical,CO2,C124389,carbon-dioxide,304.18,73.8,10.6,0.09433962264150944,1.9,3.710975609756098,0.001807724
577.94,276.33,5914.0,0.00016909,27.022,31.695,97.874,40.315,57.247,397.88,0.12177,33.178,0.05064,supercritical,CO2,C124389,carbon-dioxide,304.18,73.8,10.6,0.09433962264150944,1.9,3.7443089430894307,0.001792354
577.94,278.79,5964.0,0.00016767,27.003,31.678,97.772,40.327,57.319,398.53,0.12085,33.263,0.050772,supercritical,CO2,C124389,carbon-dioxide,304.18,73.8,10.6,0.09433962264150944,1.9,3.777642276422765,0.001777302
577.94,281.25,6014.0,0.00016628,26.984,31.661,97.672,40.339,57.391,399.18,0.11993,33.348,0.050905,supercritical,CO2,C124389,carbon-dioxide,304.18,73.8,10.6,0.09433962264150944,1.9,3.8109756097560976,0.0017625679999999997
577.94,283.71,6063.8,0.00016491,26.965,31.644,97.572,40.351,57.462,399.85,0.11902,33.433,0.051039,supercritical,CO2,C124389,carbon-dioxide,304.18,73.8,10.6,0.09433962264150944,1.9,3.844308943089431,0.0017480459999999998
577.94,286.17,6113.5,0.00016357,26.946,31.627,97.473,40.363,57.532,400.51,0.11811,33.519,0.051172,supercritical,CO2,C124389,carbon-dioxide,304.18,73.8,10.6,0.09433962264150944,1.9,3.8776422764227645,0.001733842
577.94,288.62,6163.1,0.00016226,26.927,31.61,97.375,40.375,57.602,401.18,0.11721,33.605,0.051307,supercritical,CO2,C124389,carbon-dioxide,304.18,73.8,10.6,0.09433962264150944,1.9,3.9108401084010844,0.001719956
577.94,291.08,6212.5,0.00016097,26.909,31.594,97.278,40.387,57.671,401.86,0.1163,33.692,0.051441,supercritical,CO2,C124389,carbon-dioxide,304.18,73.8,10.6,0.09433962264150944,1.9,3.944173441734417,0.001706282
577.94,293.54,6261.8,0.0001597,26.89,31.578,97.181,40.398,57.739,402.54,0.1154,33.779,0.051576,supercritical,CO2,C124389,carbon-dioxide,304.18,73.8,10.6,0.09433962264150944,1.9,3.9775067750677513,0.00169282
577.94,296.0,6311.0,0.00015845,26.871,31.561,97.085,40.41,57.807,403.23,0.11451,33.866,0.051712,supercritical,CO2,C124389,carbon-dioxide,304.18,73.8,10.6,0.09433962264150944,1.9,4.0108401084010845,0.0016795699999999998
577.94,298.46,6360.1,0.00015723,26.852,31.545,96.99,40.421,57.874,403.92,0.11361,33.955,0.051847,supercritical,CO2,C124389,carbon-dioxide,304.18,73.8,10.6,0.09433962264150944,1.9,4.044173441734417,0.001666638
577.94,300.92,6409.1,0.00015603,26.834,31.529,96.896,40.433,57.94,404.62,0.11272,34.043,0.051984,supercritical,CO2,C124389,carbon-dioxide,304.18,73.8,10.6,0.09433962264150944,1.9,4.077506775067751,0.0016539179999999999
577.94,303.37,6457.9,0.00015485,26.815,31.513,96.802,40.444,58.006,405.32,0.11184,34.132,0.05212,supercritical,CO2,C124389,carbon-dioxide,304.18,73.8,10.6,0.09433962264150944,1.9,4.11070460704607,0.0016414099999999998
577.94,305.83,6506.6,0.00015369,26.797,31.497,96.709,40.455,58.072,406.03,0.11095,34.222,0.052257,supercritical,CO2,C124389,carbon-dioxide,304.18,73.8,10.6,0.09433962264150944,1.9,4.144037940379404,0.0016291139999999999
577.94,308.29,6555.2,0.00015255,26.778,31.481,96.616,40.467,58.136,406.75,0.11008,34.311,0.052394,supercritical,CO2,C124389,carbon-dioxide,304.18,73.8,10.6,0.09433962264150944,1.9,4.177371273712738,0.0016170299999999998
577.94,310.75,6603.6,0.00015143,26.76,31.465,96.525,40.478,58.2,407.46,0.1092,34.402,0.052531,supercritical,CO2,C124389,carbon-dioxide,304.18,73.8,10.6,0.09433962264150944,1.9,4.210704607046071,0.001605158
577.94,313.21,6651.9,0.00015033,26.741,31.45,96.434,40.489,58.264,408.19,0.10833,34.493,0.052669,supercritical,CO2,C124389,carbon-dioxide,304.18,73.8,10.6,0.09433962264150944,1.9,4.244037940379403,0.001593498
577.94,315.67,6700.1,0.00014925,26.723,31.434,96.343,40.5,58.326,408.92,0.10746,34.584,0.052807,supercritical,CO2,C124389,carbon-dioxide,304.18,73.8,10.6,0.09433962264150944,1.9,4.277371273712737,0.0015820499999999998
577.94,318.12,6748.2,0.00014819,26.705,31.419,96.253,40.511,58.388,409.65,0.1066,34.675,0.052945,supercritical,CO2,C124389,carbon-dioxide,304.18,73.8,10.6,0.09433962264150944,1.9,4.310569105691057,0.001570814
577.94,320.58,6796.1,0.00014714,26.687,31.404,96.164,40.521,58.45,410.39,0.10574,34.768,0.053084,supercritical,CO2,C124389,carbon-dioxide,304.18,73.8,10.6,0.09433962264150944,1.9,4.34390243902439,0.001559684
577.94,323.04,6843.8,0.00014612,26.669,31.389,96.075,40.532,58.511,411.13,0.10488,34.86,0.053223,supercritical,CO2,C124389,carbon-dioxide,304.18,73.8,10.6,0.09433962264150944,1.9,4.377235772357724,0.0015488719999999997
577.94,325.5,6891.5,0.00014511,26.65,31.374,95.988,40.543,58.571,411.88,0.10403,34.953,0.053362,supercritical,CO2,C124389,carbon-dioxide,304.18,73.8,10.6,0.09433962264150944,1.9,4.410569105691057,0.0015381659999999999
577.94,327.96,6939.0,0.00014411,26.632,31.359,95.9,40.553,58.631,412.63,0.10318,35.046,0.053501,supercritical,CO2,C124389,carbon-dioxide,304.18,73.8,10.6,0.09433962264150944,1.9,4.44390243902439,0.001527566
577.94,330.42,6986.3,0.00014314,26.614,31.344,95.813,40.564,58.69,413.38,0.10234,35.14,0.053641,supercritical,CO2,C124389,carbon-dioxide,304.18,73.8,10.6,0.09433962264150944,1.9,4.477235772357724,0.0015172839999999998
577.94,332.87,7033.6,0.00014218,26.597,31.329,95.727,40.574,58.748,414.14,0.1015,35.234,0.053781,supercritical,CO2,C124389,carbon-dioxide,304.18,73.8,10.6,0.09433962264150944,1.9,4.510433604336043,0.0015071079999999998
577.94,335.33,7080.6,0.00014123,26.579,31.315,95.642,40.585,58.806,414.91,0.10067,35.329,0.053921,supercritical,CO2,C124389,carbon-dioxide,304.18,73.8,10.6,0.09433962264150944,1.9,4.543766937669377,0.001497038
577.94,337.79,7127.6,0.0001403,26.561,31.3,95.557,40.595,58.863,415.68,0.099834,35.423,0.054061,supercritical,CO2,C124389,carbon-dioxide,304.18,73.8,10.6,0.09433962264150944,1.9,4.577100271002711,0.0014871799999999998
577.94,340.25,7174.4,0.00013938,26.543,31.286,95.472,40.605,58.92,416.45,0.099008,35.519,0.054201,supercritical,CO2,C124389,carbon-dioxide,304.18,73.8,10.6,0.09433962264150944,1.9,4.610433604336044,0.001477428
577.94,342.71,7221.1,0.00013848,26.525,31.271,95.389,40.615,58.975,417.23,0.098185,35.614,0.054342,supercritical,CO2,C124389,carbon-dioxide,304.18,73.8,10.6,0.09433962264150944,1.9,4.643766937669376,0.0014678879999999999
577.94,345.17,7267.6,0.0001376,26.508,31.257,95.305,40.626,59.031,418.01,0.097367,35.71,0.054483,supercritical,CO2,C124389,carbon-dioxide,304.18,73.8,10.6,0.09433962264150944,1.9,4.67710027100271,0.00145856
577.94,347.62,7314.0,0.00013672,26.49,31.243,95.223,40.636,59.086,418.8,0.096554,35.807,0.054624,supercritical,CO2,C124389,carbon-dioxide,304.18,73.8,10.6,0.09433962264150944,1.9,4.71029810298103,0.001449232
577.94,350.08,7360.2,0.00013587,26.473,31.229,95.14,40.646,59.14,419.59,0.095745,35.904,0.054765,supercritical,CO2,C124389,carbon-dioxide,304.18,73.8,10.6,0.09433962264150944,1.9,4.743631436314363,0.0014402220000000001
577.94,352.54,7406.3,0.00013502,26.455,31.215,95.059,40.655,59.193,420.38,0.09494,36.001,0.054906,supercritical,CO2,C124389,carbon-dioxide,304.18,73.8,10.6,0.09433962264150944,1.9,4.776964769647697,0.0014312119999999998
577.94,355.0,7452.2,0.00013419,26.438,31.202,94.978,40.665,59.246,421.18,0.09414,36.098,0.055048,supercritical,CO2,C124389,carbon-dioxide,304.18,73.8,10.6,0.09433962264150944,1.9,4.81029810298103,0.0014224139999999997
577.94,357.46,7498.0,0.00013337,26.421,31.188,94.897,40.675,59.299,421.98,0.093344,36.196,0.055189,supercritical,CO2,C124389,carbon-dioxide,304.18,73.8,10.6,0.09433962264150944,1.9,4.843631436314363,0.0014137219999999999
577.94,359.92,7543.7,0.00013256,26.403,31.174,94.817,40.685,59.351,422.79,0.092553,36.294,0.055331,supercritical,CO2,C124389,carbon-dioxide,304.18,73.8,10.6,0.09433962264150944,1.9,4.876964769647697,0.0014051359999999998
577.94,362.37,7589.2,0.00013177,26.386,31.161,94.738,40.694,59.402,423.6,0.091766,36.393,0.055473,supercritical,CO2,C124389,carbon-dioxide,304.18,73.8,10.6,0.09433962264150944,1.9,4.910162601626016,0.0013967619999999997
577.94,364.83,7634.6,0.00013098,26.369,31.148,94.659,40.704,59.452,424.41,0.090984,36.492,0.055615,supercritical,CO2,C124389,carbon-dioxide,304.18,73.8,10.6,0.09433962264150944,1.9,4.9434959349593495,0.001388388
577.94,367.29,7679.8,0.00013021,26.352,31.134,94.58,40.713,59.503,425.22,0.090206,36.591,0.055757,supercritical,CO2,C124389,carbon-dioxide,304.18,73.8,10.6,0.09433962264150944,1.9,4.976829268292684,0.0013802259999999998
577.94,369.75,7724.9,0.00012945,26.335,31.121,94.502,40.723,59.552,426.04,0.089433,36.691,0.055899,supercritical,CO2,C124389,carbon-dioxide,304.18,73.8,10.6,0.09433962264150944,1.9,5.010162601626017,0.00137217
577.94,372.21,7769.8,0.0001287,26.318,31.108,94.425,40.732,59.601,426.87,0.088665,36.791,0.056041,supercritical,CO2,C124389,carbon-dioxide,304.18,73.8,10.6,0.09433962264150944,1.9,5.043495934959349,0.00136422
577.94,374.67,7814.6,0.00012797,26.301,31.095,94.348,40.742,59.649,427.69,0.087901,36.891,0.056183,supercritical,CO2,C124389,carbon-dioxide,304.18,73.8,10.6,0.09433962264150944,1.9,5.076829268292683,0.001356482
577.94,377.12,7859.2,0.00012724,26.284,31.082,94.271,40.751,59.697,428.53,0.087142,36.992,0.056325,supercritical,CO2,C124389,carbon-dioxide,304.18,73.8,10.6,0.09433962264150944,1.9,5.110027100271003,0.001348744
577.94,379.58,7903.7,0.00012652,26.267,31.07,94.195,40.76,59.745,429.36,0.086387,37.093,0.056468,supercritical,CO2,C124389,carbon-dioxide,304.18,73.8,10.6,0.09433962264150944,1.9,5.143360433604336,0.001341112
577.94,382.04,7948.1,0.00012582,26.25,31.057,94.12,40.769,59.791,430.2,0.085637,37.194,0.05661,supercritical,CO2,C124389,carbon-dioxide,304.18,73.8,10.6,0.09433962264150944,1.9,5.17669376693767,0.001333692
577.94,384.5,7992.3,0.00012512,26.234,31.044,94.045,40.778,59.838,431.04,0.084892,37.295,0.056753,supercritical,CO2,C124389,carbon-dioxide,304.18,73.8,10.6,0.09433962264150944,1.9,5.210027100271003,0.0013262719999999999
577.94,386.96,8036.3,0.00012444,26.217,31.032,93.97,40.787,59.883,431.88,0.084151,37.397,0.056895,supercritical,CO2,C124389,carbon-dioxide,304.18,73.8,10.6,0.09433962264150944,1.9,5.243360433604336,0.0013190639999999998
577.94,389.42,8080.2,0.00012376,26.2,31.02,93.896,40.796,59.928,432.73,0.083415,37.499,0.057038,supercritical,CO2,C124389,carbon-dioxide,304.18,73.8,10.6,0.09433962264150944,1.9,5.27669376693767,0.001311856
577.94,391.88,8123.9,0.00012309,26.184,31.007,93.822,40.805,59.973,433.57,0.082684,37.602,0.05718,supercritical,CO2,C124389,carbon-dioxide,304.18,73.8,10.6,0.09433962264150944,1.9,5.310027100271003,0.0013047539999999998
577.94,394.33,8167.5,0.00012244,26.167,30.995,93.749,40.814,60.017,434.43,0.081957,37.704,0.057323,supercritical,CO2,C124389,carbon-dioxide,304.18,73.8,10.6,0.09433962264150944,1.9,5.343224932249322,0.001297864
577.94,396.79,8211.0,0.00012179,26.151,30.983,93.676,40.823,60.061,435.28,0.081235,37.807,0.057466,supercritical,CO2,C124389,carbon-dioxide,304.18,73.8,10.6,0.09433962264150944,1.9,5.3765582655826565,0.0012909739999999999
577.94,399.25,8254.3,0.00012115,26.134,30.971,93.604,40.831,60.104,436.14,0.080518,37.911,0.057608,supercritical,CO2,C124389,carbon-dioxide,304.18,73.8,10.6,0.09433962264150944,1.9,5.40989159891599,0.00128419
577.94,401.71,8297.4,0.00012052,26.118,30.959,93.532,40.84,60.146,437.0,0.079805,38.014,0.057751,supercritical,CO2,C124389,carbon-dioxide,304.18,73.8,10.6,0.09433962264150944,1.9,5.443224932249322,0.001277512
577.94,404.17,8340.4,0.0001199,26.102,30.948,93.461,40.849,60.188,437.86,0.079096,38.118,0.057893,supercritical,CO2,C124389,carbon-dioxide,304.18,73.8,10.6,0.09433962264150944,1.9,5.476558265582656,0.00127094
577.94,406.63,8383.3,0.00011928,26.086,30.936,93.39,40.857,60.23,438.73,0.078393,38.222,0.058036,supercritical,CO2,C124389,carbon-dioxide,304.18,73.8,10.6,0.09433962264150944,1.9,5.509891598915989,0.0012643679999999999
577.94,409.08,8426.0,0.00011868,26.069,30.924,93.319,40.866,60.271,439.6,0.077694,38.327,0.058178,supercritical,CO2,C124389,carbon-dioxide,304.18,73.8,10.6,0.09433962264150944,1.9,5.543089430894309,0.001258008
577.94,411.54,8468.6,0.00011808,26.053,30.913,93.249,40.874,60.311,440.47,0.077,38.431,0.058321,supercritical,CO2,C124389,carbon-dioxide,304.18,73.8,10.6,0.09433962264150944,1.9,5.576422764227643,0.001251648
577.94,414.0,8511.0,0.0001175,26.037,30.902,93.179,40.883,60.351,441.35,0.07631,38.536,0.058463,supercritical,CO2,C124389,carbon-dioxide,304.18,73.8,10.6,0.09433962264150944,1.9,5.609756097560976,0.0012454999999999999
577.94,416.46,8553.2,0.00011692,26.021,30.89,93.11,40.891,60.391,442.22,0.075625,38.641,0.058606,supercritical,CO2,C124389,carbon-dioxide,304.18,73.8,10.6,0.09433962264150944,1.9,5.6430894308943085,0.001239352
577.94,418.92,8595.3,0.00011634,26.005,30.879,93.041,40.899,60.43,443.1,0.074944,38.747,0.058748,supercritical,CO2,C124389,carbon-dioxide,304.18,73.8,10.6,0.09433962264150944,1.9,5.676422764227643,0.001233204
577.94,421.38,8637.3,0.00011578,25.99,30.868,92.972,40.907,60.468,443.98,0.074268,38.852,0.058891,supercritical,CO2,C124389,carbon-dioxide,304.18,73.8,10.6,0.09433962264150944,1.9,5.709756097560976,0.001227268
577.94,423.83,8679.1,0.00011522,25.974,30.857,92.904,40.916,60.506,444.87,0.073596,38.958,0.059033,supercritical,CO2,C124389,carbon-dioxide,304.18,73.8,10.6,0.09433962264150944,1.9,5.742953929539295,0.0012213319999999999
577.94,426.29,8720.8,0.00011467,25.958,30.846,92.836,40.924,60.544,445.75,0.072929,39.064,0.059175,supercritical,CO2,C124389,carbon-dioxide,304.18,73.8,10.6,0.09433962264150944,1.9,5.776287262872629,0.0012155019999999998
577.94,428.75,8762.3,0.00011413,25.942,30.835,92.769,40.932,60.581,446.64,0.072267,39.171,0.059317,supercritical,CO2,C124389,carbon-dioxide,304.18,73.8,10.6,0.09433962264150944,1.9,5.809620596205963,0.001209778
577.94,431.21,8803.7,0.00011359,25.927,30.825,92.702,40.94,60.618,447.53,0.071609,39.277,0.059459,supercritical,CO2,C124389,carbon-dioxide,304.18,73.8,10.6,0.09433962264150944,1.9,5.842953929539295,0.001204054
577.94,433.67,8844.9,0.00011306,25.911,30.814,92.635,40.948,60.654,448.43,0.070955,39.384,0.059601,supercritical,CO2,C124389,carbon-dioxide,304.18,73.8,10.6,0.09433962264150944,1.9,5.876287262872629,0.001198436
577.94,436.13,8885.9,0.00011254,25.895,30.804,92.569,40.956,60.689,449.32,0.070306,39.491,0.059743,supercritical,CO2,C124389,carbon-dioxide,304.18,73.8,10.6,0.09433962264150944,1.9,5.909620596205962,0.001192924
577.94,438.58,8926.9,0.00011202,25.88,30.793,92.503,40.964,60.725,450.22,0.069661,39.598,0.059885,supercritical,CO2,C124389,carbon-dioxide,304.18,73.8,10.6,0.09433962264150944,1.9,5.942818428184282,0.0011874119999999999
577.94,441.04,8967.7,0.00011151,25.865,30.783,92.438,40.972,60.759,451.12,0.069021,39.706,0.060027,supercritical,CO2,C124389,carbon-dioxide,304.18,73.8,10.6,0.09433962264150944,1.9,5.976151761517616,0.0011820059999999998
577.94,443.5,9008.3,0.00011101,25.849,30.772,92.373,40.979,60.794,452.02,0.068385,39.814,0.060168,supercritical,CO2,C124389,carbon-dioxide,304.18,73.8,10.6,0.09433962264150944,1.9,6.009485094850949,0.0011767059999999998
577.94,445.96,9048.8,0.00011051,25.834,30.762,92.308,40.987,60.828,452.92,0.067754,39.921,0.06031,supercritical,CO2,C124389,carbon-dioxide,304.18,73.8,10.6,0.09433962264150944,1.9,6.042818428184281,0.0011714059999999998
577.94,448.42,9089.1,0.00011002,25.819,30.752,92.244,40.995,60.861,453.83,0.067127,40.029,0.060451,supercritical,CO2,C124389,carbon-dioxide,304.18,73.8,10.6,0.09433962264150944,1.9,6.0761517615176155,0.0011662119999999998
577.94,450.88,9129.3,0.00010954,25.803,30.742,92.18,41.002,60.894,454.74,0.066504,40.138,0.060592,supercritical,CO2,C124389,carbon-dioxide,304.18,73.8,10.6,0.09433962264150944,1.9,6.109485094850949,0.001161124