Temperature (K),Pressure (bar),Density (mol/m3),Volume (m3/mol),Internal Energy (kJ/mol),Enthalpy (kJ/mol),Entropy (J/mol*K),Cv (J/mol*K),Cp (J/mol*K),Sound Spd. (m/s),Joule-Thomson (K/bar),Viscosity (uPa*s),Therm. Cond. (W/m*K),Phase,substance,substance_id,substance_name,Tc,Pc,rhoc,Vmc,Tr,Pr,Vmr
1099.9,1957.7,22437.0,4.457e-05,55.868,64.593,101.64,42.678,68.717,1022.4,0.036638,62.886,0.36507,supercritical,H2O,C7732185,water,647.0,220.64,17.9,0.0558659217877095,1.6999999999999997,8.872824510514867,0.000797803
1099.9,1965.0,22499.0,4.4445e-05,55.841,64.575,101.59,42.69,68.722,1024.1,0.036341,62.971,0.36595,supercritical,H2O,C7732185,water,647.0,220.64,17.9,0.0558659217877095,1.6999999999999997,8.90591007976795,0.0007955654999999999
1099.9,1972.4,22562.0,4.4322e-05,55.815,64.556,101.55,42.702,68.726,1025.8,0.036046,63.056,0.36682,supercritical,H2O,C7732185,water,647.0,220.64,17.9,0.0558659217877095,1.6999999999999997,8.939448875997101,0.0007933638
1099.9,1979.7,22624.0,4.42e-05,55.788,64.538,101.5,42.714,68.73,1027.5,0.035754,63.142,0.3677,supercritical,H2O,C7732185,water,647.0,220.64,17.9,0.0558659217877095,1.6999999999999997,8.972534445250181,0.0007911799999999999
1099.9,1987.1,22686.0,4.4079e-05,55.762,64.52,101.46,42.726,68.734,1029.2,0.035464,63.227,0.36857,supercritical,H2O,C7732185,water,647.0,220.64,17.9,0.0558659217877095,1.6999999999999997,9.006073241479333,0.0007890141
1099.9,1994.4,22748.0,4.396e-05,55.735,64.502,101.41,42.738,68.737,1030.8,0.035176,63.312,0.36944,supercritical,H2O,C7732185,water,647.0,220.64,17.9,0.0558659217877095,1.6999999999999997,9.039158810732415,0.000786884
1099.9,2001.7,22810.0,4.3841e-05,55.709,64.485,101.36,42.749,68.74,1032.5,0.03489,63.397,0.37031,supercritical,H2O,C7732185,water,647.0,220.64,17.9,0.0558659217877095,1.6999999999999997,9.072244379985497,0.0007847539
1099.9,2009.1,22871.0,4.3723e-05,55.683,64.467,101.32,42.761,68.743,1034.2,0.034606,63.482,0.37117,supercritical,H2O,C7732185,water,647.0,220.64,17.9,0.0558659217877095,1.6999999999999997,9.105783176214649,0.0007826417
1099.9,2016.4,22932.0,4.3606e-05,55.657,64.45,101.27,42.773,68.746,1035.9,0.034324,63.567,0.37204,supercritical,H2O,C7732185,water,647.0,220.64,17.9,0.0558659217877095,1.6999999999999997,9.13886874546773,0.0007805474
1099.9,2023.8,22993.0,4.3491e-05,55.631,64.433,101.23,42.784,68.748,1037.6,0.034045,63.652,0.3729,supercritical,H2O,C7732185,water,647.0,220.64,17.9,0.0558659217877095,1.6999999999999997,9.172407541696883,0.0007784889
1099.9,2031.1,23054.0,4.3376e-05,55.605,64.415,101.18,42.796,68.75,1039.3,0.033768,63.737,0.37376,supercritical,H2O,C7732185,water,647.0,220.64,17.9,0.0558659217877095,1.6999999999999997,9.205493110949964,0.0007764304
1099.9,2038.5,23115.0,4.3262e-05,55.579,64.398,101.14,42.807,68.752,1041.0,0.033493,63.821,0.37462,supercritical,H2O,C7732185,water,647.0,220.64,17.9,0.0558659217877095,1.6999999999999997,9.239031907179116,0.0007743898
1099.9,2045.8,23175.0,4.315e-05,55.554,64.382,101.1,42.818,68.753,1042.6,0.03322,63.906,0.37548,supercritical,H2O,C7732185,water,647.0,220.64,17.9,0.0558659217877095,1.6999999999999997,9.272117476432198,0.0007723849999999999
1099.9,2053.2,23235.0,4.3038e-05,55.528,64.365,101.05,42.83,68.755,1044.3,0.032949,63.99,0.37633,supercritical,H2O,C7732185,water,647.0,220.64,17.9,0.0558659217877095,1.6999999999999997,9.305656272661349,0.0007703801999999999
1099.9,2060.5,23295.0,4.2927e-05,55.503,64.348,101.01,42.841,68.756,1046.0,0.03268,64.075,0.37719,supercritical,H2O,C7732185,water,647.0,220.64,17.9,0.0558659217877095,1.6999999999999997,9.338741841914432,0.0007683932999999999
1099.9,2067.9,23355.0,4.2818e-05,55.478,64.332,100.97,42.852,68.757,1047.7,0.032413,64.159,0.37804,supercritical,H2O,C7732185,water,647.0,220.64,17.9,0.0558659217877095,1.6999999999999997,9.372280638143584,0.0007664422
1099.9,2075.2,23414.0,4.2709e-05,55.452,64.316,100.92,42.863,68.758,1049.4,0.032148,64.243,0.37889,supercritical,H2O,C7732185,water,647.0,220.64,17.9,0.0558659217877095,1.6999999999999997,9.405366207396664,0.0007644911
1099.9,2082.6,23474.0,4.2601e-05,55.427,64.299,100.88,42.874,68.758,1051.1,0.031885,64.328,0.37973,supercritical,H2O,C7732185,water,647.0,220.64,17.9,0.0558659217877095,1.6999999999999997,9.438905003625816,0.0007625579
1099.9,2089.9,23533.0,4.2494e-05,55.402,64.283,100.84,42.885,68.759,1052.7,0.031624,64.412,0.38058,supercritical,H2O,C7732185,water,647.0,220.64,17.9,0.0558659217877095,1.6999999999999997,9.471990572878898,0.0007606426
1099.9,2097.3,23592.0,4.2388e-05,55.378,64.267,100.79,42.896,68.759,1054.4,0.031365,64.496,0.38142,supercritical,H2O,C7732185,water,647.0,220.64,17.9,0.0558659217877095,1.6999999999999997,9.50552936910805,0.0007587452
1099.9,2104.6,23650.0,4.2282e-05,55.353,64.252,100.75,42.907,68.759,1056.1,0.031108,64.58,0.38227,supercritical,H2O,C7732185,water,647.0,220.64,17.9,0.0558659217877095,1.6999999999999997,9.538614938361132,0.0007568477999999999
1099.9,2112.0,23709.0,4.2178e-05,55.328,64.236,100.71,42.918,68.758,1057.8,0.030853,64.663,0.38311,supercritical,H2O,C7732185,water,647.0,220.64,17.9,0.0558659217877095,1.6999999999999997,9.572153734590284,0.0007549862
1099.9,2119.3,23767.0,4.2075e-05,55.303,64.22,100.67,42.929,68.758,1059.5,0.0306,64.747,0.38395,supercritical,H2O,C7732185,water,647.0,220.64,17.9,0.0558659217877095,1.6999999999999997,9.605239303843366,0.0007531424999999999
1099.9,2126.7,23825.0,4.1972e-05,55.279,64.205,100.62,42.94,68.757,1061.1,0.030349,64.831,0.38478,supercritical,H2O,C7732185,water,647.0,220.64,17.9,0.0558659217877095,1.6999999999999997,9.638778100072516,0.0007512987999999999
1099.9,2134.0,23883.0,4.187e-05,55.255,64.19,100.58,42.95,68.756,1062.8,0.0301,64.914,0.38562,supercritical,H2O,C7732185,water,647.0,220.64,17.9,0.0558659217877095,1.6999999999999997,9.6718636693256,0.0007494729999999998
1099.9,2141.4,23941.0,4.1769e-05,55.23,64.175,100.54,42.961,68.755,1064.5,0.029852,64.998,0.38645,supercritical,H2O,C7732185,water,647.0,220.64,17.9,0.0558659217877095,1.6999999999999997,9.705402465554752,0.0007476650999999999
1099.9,2148.7,23998.0,4.1669e-05,55.206,64.16,100.5,42.972,68.754,1066.2,0.029607,65.081,0.38728,supercritical,H2O,C7732185,water,647.0,220.64,17.9,0.0558659217877095,1.6999999999999997,9.738488034807832,0.0007458750999999999
1099.9,2156.1,24056.0,4.157e-05,55.182,64.145,100.46,42.982,68.753,1067.8,0.029363,65.165,0.38811,supercritical,H2O,C7732185,water,647.0,220.64,17.9,0.0558659217877095,1.6999999999999997,9.772026831036984,0.0007441029999999999
1099.9,2163.4,24113.0,4.1472e-05,55.158,64.13,100.42,42.993,68.751,1069.5,0.029121,65.248,0.38894,supercritical,H2O,C7732185,water,647.0,220.64,17.9,0.0558659217877095,1.6999999999999997,9.805112400290067,0.0007423487999999999
1099.9,2170.8,24170.0,4.1374e-05,55.134,64.115,100.37,43.003,68.749,1071.2,0.028881,65.331,0.38977,supercritical,H2O,C7732185,water,647.0,220.64,17.9,0.0558659217877095,1.6999999999999997,9.838651196519217,0.0007405946
1099.9,2178.1,24227.0,4.1277e-05,55.11,64.101,100.33,43.014,68.748,1072.8,0.028643,65.414,0.39059,supercritical,H2O,C7732185,water,647.0,220.64,17.9,0.0558659217877095,1.6999999999999997,9.8717367657723,0.0007388582999999999
1099.9,2185.5,24283.0,4.1181e-05,55.086,64.086,100.29,43.024,68.746,1074.5,0.028407,65.497,0.39142,supercritical,H2O,C7732185,water,647.0,220.64,17.9,0.0558659217877095,1.6999999999999997,9.905275562001451,0.0007371398999999999
1099.9,2192.8,24339.0,4.1085e-05,55.063,64.072,100.25,43.034,68.743,1076.2,0.028172,65.58,0.39224,supercritical,H2O,C7732185,water,647.0,220.64,17.9,0.0558659217877095,1.6999999999999997,9.938361131254533,0.0007354214999999999
1099.9,2200.2,24396.0,4.0991e-05,55.039,64.058,100.21,43.044,68.741,1077.9,0.027939,65.663,0.39306,supercritical,H2O,C7732185,water,647.0,220.64,17.9,0.0558659217877095,1.6999999999999997,9.971899927483683,0.0007337388999999999
1099.9,2207.5,24452.0,4.0897e-05,55.016,64.044,100.17,43.055,68.739,1079.5,0.027708,65.746,0.39388,supercritical,H2O,C7732185,water,647.0,220.64,17.9,0.0558659217877095,1.6999999999999997,10.004985496736767,0.0007320562999999999
1099.9,2214.8,24507.0,4.0804e-05,54.992,64.03,100.13,43.065,68.736,1081.2,0.027479,65.829,0.39469,supercritical,H2O,C7732185,water,647.0,220.64,17.9,0.0558659217877095,1.6999999999999997,10.038071065989849,0.0007303915999999999
1099.9,2222.2,24563.0,4.0712e-05,54.969,64.016,100.09,43.075,68.733,1082.8,0.027251,65.911,0.39551,supercritical,H2O,C7732185,water,647.0,220.64,17.9,0.0558659217877095,1.6999999999999997,10.071609862218999,0.0007287448
1099.9,2229.5,24618.0,4.062e-05,54.946,64.002,100.05,43.085,68.73,1084.5,0.027025,65.994,0.39632,supercritical,H2O,C7732185,water,647.0,220.64,17.9,0.0558659217877095,1.6999999999999997,10.104695431472082,0.0007270979999999999
1099.9,2236.9,24674.0,4.0529e-05,54.923,63.989,100.01,43.095,68.727,1086.2,0.026801,66.077,0.39713,supercritical,H2O,C7732185,water,647.0,220.64,17.9,0.0558659217877095,1.6999999999999997,10.138234227701235,0.0007254690999999999
1099.9,2244.2,24729.0,4.0439e-05,54.9,63.975,99.974,43.105,68.724,1087.8,0.026578,66.159,0.39794,supercritical,H2O,C7732185,water,647.0,220.64,17.9,0.0558659217877095,1.6999999999999997,10.171319796954315,0.0007238580999999999
1099.9,2251.6,24784.0,4.0349e-05,54.877,63.962,99.935,43.115,68.721,1089.5,0.026357,66.241,0.39875,supercritical,H2O,C7732185,water,647.0,220.64,17.9,0.0558659217877095,1.6999999999999997,10.204858593183467,0.0007222471
1099.9,2258.9,24838.0,4.026e-05,54.854,63.949,99.896,43.125,68.718,1091.1,0.026138,66.324,0.39956,supercritical,H2O,C7732185,water,647.0,220.64,17.9,0.0558659217877095,1.6999999999999997,10.23794416243655,0.0007206539999999999
1099.9,2266.3,24893.0,4.0172e-05,54.831,63.936,99.857,43.135,68.714,1092.8,0.02592,66.406,0.40036,supercritical,H2O,C7732185,water,647.0,220.64,17.9,0.0558659217877095,1.6999999999999997,10.2714829586657,0.0007190788
1099.9,2273.6,24947.0,4.0085e-05,54.809,63.923,99.818,43.145,68.71,1094.4,0.025704,66.488,0.40117,supercritical,H2O,C7732185,water,647.0,220.64,17.9,0.0558659217877095,1.6999999999999997,10.304568527918782,0.0007175215
1099.9,2281.0,25001.0,3.9998e-05,54.786,63.91,99.78,43.154,68.707,1096.1,0.02549,66.57,0.40197,supercritical,H2O,C7732185,water,647.0,220.64,17.9,0.0558659217877095,1.6999999999999997,10.338107324147934,0.0007159641999999999
1099.9,2288.3,25055.0,3.9912e-05,54.764,63.897,99.742,43.164,68.703,1097.7,0.025277,66.652,0.40277,supercritical,H2O,C7732185,water,647.0,220.64,17.9,0.0558659217877095,1.6999999999999997,10.371192893401016,0.0007144247999999999
1099.9,2295.7,25109.0,3.9826e-05,54.741,63.884,99.703,43.174,68.699,1099.4,0.025066,66.734,0.40357,supercritical,H2O,C7732185,water,647.0,220.64,17.9,0.0558659217877095,1.6999999999999997,10.404731689630166,0.0007128853999999999
1099.9,2303.0,25163.0,3.9742e-05,54.719,63.871,99.665,43.184,68.695,1101.0,0.024856,66.816,0.40437,supercritical,H2O,C7732185,water,647.0,220.64,17.9,0.0558659217877095,1.6999999999999997,10.43781725888325,0.0007113817999999999
1099.9,2310.4,25216.0,3.9657e-05,54.697,63.859,99.627,43.193,68.691,1102.7,0.024648,66.897,0.40517,supercritical,H2O,C7732185,water,647.0,220.64,17.9,0.0558659217877095,1.6999999999999997,10.471356055112402,0.0007098603
1099.9,2317.7,25269.0,3.9574e-05,54.674,63.847,99.59,43.203,68.686,1104.3,0.024441,66.979,0.40596,supercritical,H2O,C7732185,water,647.0,220.64,17.9,0.0558659217877095,1.6999999999999997,10.504441624365482,0.0007083745999999999
1099.9,2325.1,25322.0,3.9491e-05,54.652,63.834,99.552,43.212,68.682,1105.9,0.024236,67.06,0.40676,supercritical,H2O,C7732185,water,647.0,220.64,17.9,0.0558659217877095,1.6999999999999997,10.537980420594634,0.0007068888999999999
1099.9,2332.4,25375.0,3.9408e-05,54.63,63.822,99.515,43.222,68.677,1107.6,0.024032,67.142,0.40755,supercritical,H2O,C7732185,water,647.0,220.64,17.9,0.0558659217877095,1.6999999999999997,10.571065989847718,0.0007054031999999999
1099.9,2339.8,25428.0,3.9327e-05,54.609,63.81,99.477,43.231,68.673,1109.2,0.02383,67.223,0.40834,supercritical,H2O,C7732185,water,647.0,220.64,17.9,0.0558659217877095,1.6999999999999997,10.60460478607687,0.0007039532999999999
1099.9,2347.1,25481.0,3.9245e-05,54.587,63.798,99.44,43.241,68.668,1110.9,0.023629,67.305,0.40913,supercritical,H2O,C7732185,water,647.0,220.64,17.9,0.0558659217877095,1.6999999999999997,10.63769035532995,0.0007024854999999999
1099.9,2354.5,25533.0,3.9165e-05,54.565,63.786,99.403,43.25,68.663,1112.5,0.02343,67.386,0.40992,supercritical,H2O,C7732185,water,647.0,220.64,17.9,0.0558659217877095,1.6999999999999997,10.671229151559102,0.0007010534999999999
1099.9,2361.8,25585.0,3.9085e-05,54.543,63.774,99.366,43.259,68.658,1114.1,0.023232,67.467,0.4107,supercritical,H2O,C7732185,water,647.0,220.64,17.9,0.0558659217877095,1.6999999999999997,10.704314720812183,0.0006996215
1099.9,2369.2,25637.0,3.9006e-05,54.522,63.763,99.33,43.269,68.653,1115.8,0.023036,67.548,0.41149,supercritical,H2O,C7732185,water,647.0,220.64,17.9,0.0558659217877095,1.6999999999999997,10.737853517041334,0.0006982074
1099.9,2376.5,25689.0,3.8927e-05,54.5,63.751,99.293,43.278,68.648,1117.4,0.022841,67.629,0.41227,supercritical,H2O,C7732185,water,647.0,220.64,17.9,0.0558659217877095,1.6999999999999997,10.770939086294417,0.0006967933
1099.9,2383.9,25741.0,3.8849e-05,54.479,63.74,99.257,43.287,68.643,1119.0,0.022647,67.71,0.41306,supercritical,H2O,C7732185,water,647.0,220.64,17.9,0.0558659217877095,1.6999999999999997,10.80447788252357,0.0006953971
1099.9,2391.2,25793.0,3.8771e-05,54.457,63.728,99.221,43.296,68.638,1120.6,0.022455,67.791,0.41384,supercritical,H2O,C7732185,water,647.0,220.64,17.9,0.0558659217877095,1.6999999999999997,10.83756345177665,0.0006940008999999999
1099.9,2398.6,25844.0,3.8694e-05,54.436,63.717,99.184,43.306,68.632,1122.3,0.022265,67.872,0.41462,supercritical,H2O,C7732185,water,647.0,220.64,17.9,0.0558659217877095,1.6999999999999997,10.871102248005801,0.0006926225999999999
1099.9,2405.9,25895.0,3.8617e-05,54.415,63.706,99.148,43.315,68.627,1123.9,0.022075,67.953,0.4154,supercritical,H2O,C7732185,water,647.0,220.64,17.9,0.0558659217877095,1.6999999999999997,10.904187817258885,0.0006912442999999999
1099.9,2413.3,25946.0,3.8541e-05,54.394,63.695,99.113,43.324,68.621,1125.5,0.021887,68.034,0.41618,supercritical,H2O,C7732185,water,647.0,220.64,17.9,0.0558659217877095,1.6999999999999997,10.937726613488037,0.0006898839
1099.9,2420.6,25997.0,3.8466e-05,54.373,63.684,99.077,43.333,68.616,1127.1,0.021701,68.114,0.41695,supercritical,H2O,C7732185,water,647.0,220.64,17.9,0.0558659217877095,1.6999999999999997,10.970812182741117,0.0006885414
1099.9,2428.0,26048.0,3.8391e-05,54.352,63.673,99.041,43.342,68.61,1128.7,0.021515,68.195,0.41773,supercritical,H2O,C7732185,water,647.0,220.64,17.9,0.0558659217877095,1.6999999999999997,11.004350978970269,0.0006871989
1099.9,2435.3,26099.0,3.8316e-05,54.331,63.662,99.006,43.351,68.604,1130.3,0.021331,68.275,0.4185,supercritical,H2O,C7732185,water,647.0,220.64,17.9,0.0558659217877095,1.6999999999999997,11.037436548223353,0.0006858563999999999
1099.9,2442.6,26149.0,3.8242e-05,54.31,63.651,98.971,43.36,68.598,1131.9,0.021148,68.356,0.41927,supercritical,H2O,C7732185,water,647.0,220.64,17.9,0.0558659217877095,1.6999999999999997,11.070522117476433,0.0006845317999999999
1099.9,2450.0,26199.0,3.8169e-05,54.289,63.641,98.935,43.369,68.593,1133.6,0.020967,68.436,0.42004,supercritical,H2O,C7732185,water,647.0,220.64,17.9,0.0558659217877095,1.6999999999999997,11.104060913705585,0.0006832250999999999
1099.9,2457.3,26249.0,3.8096e-05,54.269,63.63,98.9,43.378,68.587,1135.2,0.020787,68.516,0.42081,supercritical,H2O,C7732185,water,647.0,220.64,17.9,0.0558659217877095,1.6999999999999997,11.137146482958666,0.0006819184
1099.9,2464.7,26299.0,3.8024e-05,54.248,63.62,98.865,43.387,68.581,1136.8,0.020608,68.596,0.42158,supercritical,H2O,C7732185,water,647.0,220.64,17.9,0.0558659217877095,1.6999999999999997,11.170685279187817,0.0006806296
1099.9,2472.0,26349.0,3.7952e-05,54.228,63.609,98.831,43.396,68.574,1138.4,0.02043,68.676,0.42235,supercritical,H2O,C7732185,water,647.0,220.64,17.9,0.0558659217877095,1.6999999999999997,11.2037708484409,0.0006793407999999999
1099.9,2479.4,26399.0,3.788e-05,54.207,63.599,98.796,43.404,68.568,1140.0,0.020254,68.756,0.42312,supercritical,H2O,C7732185,water,647.0,220.64,17.9,0.0558659217877095,1.6999999999999997,11.237309644670052,0.0006780520000000001
1099.9,2486.7,26448.0,3.7809e-05,54.187,63.589,98.761,43.413,68.562,1141.6,0.020079,68.836,0.42388,supercritical,H2O,C7732185,water,647.0,220.64,17.9,0.0558659217877095,1.6999999999999997,11.270395213923132,0.0006767810999999999
1099.9,2494.1,26498.0,3.7739e-05,54.167,63.579,98.727,43.422,68.556,1143.2,0.019905,68.916,0.42464,supercritical,H2O,C7732185,water,647.0,220.64,17.9,0.0558659217877095,1.6999999999999997,11.303934010152284,0.0006755280999999999
1099.9,2501.4,26547.0,3.7669e-05,54.146,63.569,98.693,43.431,68.549,1144.8,0.019732,68.996,0.42541,supercritical,H2O,C7732185,water,647.0,220.64,17.9,0.0558659217877095,1.6999999999999997,11.337019579405368,0.0006742750999999999
1099.9,2508.8,26596.0,3.76e-05,54.126,63.559,98.659,43.439,68.543,1146.3,0.019561,69.076,0.42617,supercritical,H2O,C7732185,water,647.0,220.64,17.9,0.0558659217877095,1.6999999999999997,11.37055837563452,0.00067304
1099.9,2516.1,26645.0,3.7531e-05,54.106,63.549,98.625,43.448,68.536,1147.9,0.01939,69.155,0.42693,supercritical,H2O,C7732185,water,647.0,220.64,17.9,0.0558659217877095,1.6999999999999997,11.4036439448876,0.0006718048999999999
1099.9,2523.5,26694.0,3.7462e-05,54.086,63.54,98.591,43.457,68.53,1149.5,0.019221,69.235,0.42769,supercritical,H2O,C7732185,water,647.0,220.64,17.9,0.0558659217877095,1.6999999999999997,11.437182741116752,0.0006705697999999999
1099.9,2530.8,26742.0,3.7394e-05,54.066,63.53,98.557,43.465,68.523,1151.1,0.019053,69.315,0.42845,supercritical,H2O,C7732185,water,647.0,220.64,17.9,0.0558659217877095,1.6999999999999997,11.470268310369836,0.0006693526
1099.9,2538.2,26791.0,3.7326e-05,54.046,63.52,98.523,43.474,68.516,1152.7,0.018887,69.394,0.4292,supercritical,H2O,C7732185,water,647.0,220.64,17.9,0.0558659217877095,1.6999999999999997,11.503807106598984,0.0006681354
1099.9,2545.5,26839.0,3.7259e-05,54.027,63.511,98.49,43.482,68.51,1154.3,0.018721,69.473,0.42996,supercritical,H2O,C7732185,water,647.0,220.64,17.9,0.0558659217877095,1.6999999999999997,11.536892675852068,0.0006669361
1099.9,2552.9,26887.0,3.7192e-05,54.007,63.502,98.456,43.491,68.503,1155.9,0.018556,69.553,0.43071,supercritical,H2O,C7732185,water,647.0,220.64,17.9,0.0558659217877095,1.6999999999999997,11.57043147208122,0.0006657367999999999
1099.9,2560.2,26935.0,3.7126e-05,53.987,63.492,98.423,43.499,68.496,1157.4,0.018393,69.632,0.43147,supercritical,H2O,C7732185,water,647.0,220.64,17.9,0.0558659217877095,1.6999999999999997,11.6035170413343,0.0006645554
1099.9,2567.6,26983.0,3.706e-05,53.968,63.483,98.39,43.508,68.489,1159.0,0.018231,69.711,0.43222,supercritical,H2O,C7732185,water,647.0,220.64,17.9,0.0558659217877095,1.6999999999999997,11.637055837563452,0.000663374
1099.9,2574.9,27031.0,3.6995e-05,53.948,63.474,98.357,43.516,68.482,1160.6,0.01807,69.79,0.43297,supercritical,H2O,C7732185,water,647.0,220.64,17.9,0.0558659217877095,1.6999999999999997,11.670141406816535,0.0006622104999999999
1099.9,2582.3,27078.0,3.693e-05,53.929,63.465,98.324,43.525,68.475,1162.2,0.01791,69.869,0.43372,supercritical,H2O,C7732185,water,647.0,220.64,17.9,0.0558659217877095,1.6999999999999997,11.703680203045687,0.000661047
1099.9,2589.6,27126.0,3.6865e-05,53.909,63.456,98.291,43.533,68.468,1163.7,0.017751,69.948,0.43447,supercritical,H2O,C7732185,water,647.0,220.64,17.9,0.0558659217877095,1.6999999999999997,11.736765772298767,0.0006598835
1099.9,2597.0,27173.0,3.6801e-05,53.89,63.447,98.259,43.541,68.461,1165.3,0.017593,70.027,0.43522,supercritical,H2O,C7732185,water,647.0,220.64,17.9,0.0558659217877095,1.6999999999999997,11.77030456852792,0.0006587379