Temperature (K),Pressure (bar),Density (mol/m3),Volume (m3/mol),Internal Energy (kJ/mol),Enthalpy (kJ/mol),Entropy (J/mol*K),Cv (J/mol*K),Cp (J/mol*K),Sound Spd. (m/s),Joule-Thomson (K/bar),Viscosity (uPa*s),Therm. Cond. (W/m*K),Phase,substance,substance_id,substance_name,Tc,Pc,rhoc,Vmc,Tr,Pr,Vmr
970.5,2104.6,28645.0,3.491e-05,47.608,54.955,91.75,44.22,74.831,1093.2,0.024636,70.03,0.42476,supercritical,H2O,C7732185,water,647.0,220.64,17.9,0.0558659217877095,1.5,9.538614938361132,0.000624889
970.5,2112.0,28703.0,3.484e-05,47.584,54.942,91.71,44.227,74.795,1095.2,0.024395,70.138,0.42569,supercritical,H2O,C7732185,water,647.0,220.64,17.9,0.0558659217877095,1.5,9.572153734590284,0.0006236359999999999
970.5,2119.3,28760.0,3.477e-05,47.56,54.929,91.67,44.235,74.758,1097.2,0.024155,70.246,0.42663,supercritical,H2O,C7732185,water,647.0,220.64,17.9,0.0558659217877095,1.5,9.605239303843366,0.000622383
970.5,2126.7,28818.0,3.4701e-05,47.536,54.915,91.63,44.242,74.722,1099.2,0.023918,70.353,0.42757,supercritical,H2O,C7732185,water,647.0,220.64,17.9,0.0558659217877095,1.5,9.638778100072516,0.0006211478999999999
970.5,2134.0,28874.0,3.4633e-05,47.512,54.902,91.59,44.25,74.686,1101.2,0.023683,70.461,0.4285,supercritical,H2O,C7732185,water,647.0,220.64,17.9,0.0558659217877095,1.5,9.6718636693256,0.0006199306999999999
970.5,2141.4,28931.0,3.4565e-05,47.488,54.889,91.551,44.257,74.65,1103.2,0.023449,70.568,0.42943,supercritical,H2O,C7732185,water,647.0,220.64,17.9,0.0558659217877095,1.5,9.705402465554752,0.0006187135
970.5,2148.7,28987.0,3.4498e-05,47.464,54.877,91.511,44.264,74.614,1105.1,0.023218,70.675,0.43036,supercritical,H2O,C7732185,water,647.0,220.64,17.9,0.0558659217877095,1.5,9.738488034807832,0.0006175142
970.5,2156.1,29044.0,3.4431e-05,47.44,54.864,91.472,44.272,74.578,1107.1,0.022989,70.782,0.43128,supercritical,H2O,C7732185,water,647.0,220.64,17.9,0.0558659217877095,1.5,9.772026831036984,0.0006163149000000001
970.5,2163.4,29100.0,3.4365e-05,47.417,54.851,91.433,44.279,74.542,1109.1,0.022762,70.888,0.43221,supercritical,H2O,C7732185,water,647.0,220.64,17.9,0.0558659217877095,1.5,9.805112400290067,0.0006151335
970.5,2170.8,29155.0,3.4299e-05,47.393,54.839,91.394,44.286,74.506,1111.1,0.022536,70.995,0.43313,supercritical,H2O,C7732185,water,647.0,220.64,17.9,0.0558659217877095,1.5,9.838651196519217,0.0006139520999999999
970.5,2178.1,29211.0,3.4234e-05,47.37,54.827,91.356,44.294,74.471,1113.0,0.022313,71.101,0.43405,supercritical,H2O,C7732185,water,647.0,220.64,17.9,0.0558659217877095,1.5,9.8717367657723,0.0006127886
970.5,2185.5,29266.0,3.4169e-05,47.347,54.815,91.317,44.301,74.435,1115.0,0.022091,71.207,0.43496,supercritical,H2O,C7732185,water,647.0,220.64,17.9,0.0558659217877095,1.5,9.905275562001451,0.0006116250999999999
970.5,2192.8,29321.0,3.4105e-05,47.324,54.803,91.279,44.308,74.4,1116.9,0.021872,71.313,0.43588,supercritical,H2O,C7732185,water,647.0,220.64,17.9,0.0558659217877095,1.5,9.938361131254533,0.0006104795
970.5,2200.2,29376.0,3.4042e-05,47.301,54.791,91.241,44.315,74.364,1118.9,0.021654,71.418,0.43679,supercritical,H2O,C7732185,water,647.0,220.64,17.9,0.0558659217877095,1.5,9.971899927483683,0.0006093517999999999
970.5,2207.5,29430.0,3.3978e-05,47.278,54.779,91.203,44.322,74.329,1120.8,0.021438,71.524,0.43771,supercritical,H2O,C7732185,water,647.0,220.64,17.9,0.0558659217877095,1.5,10.004985496736767,0.0006082062
970.5,2214.8,29485.0,3.3916e-05,47.255,54.767,91.165,44.329,74.293,1122.8,0.021224,71.629,0.43861,supercritical,H2O,C7732185,water,647.0,220.64,17.9,0.0558659217877095,1.5,10.038071065989849,0.0006070963999999999
970.5,2222.2,29539.0,3.3854e-05,47.233,54.756,91.128,44.337,74.258,1124.7,0.021011,71.734,0.43952,supercritical,H2O,C7732185,water,647.0,220.64,17.9,0.0558659217877095,1.5,10.071609862218999,0.0006059866
970.5,2229.5,29593.0,3.3792e-05,47.21,54.744,91.091,44.344,74.223,1126.7,0.020801,71.839,0.44043,supercritical,H2O,C7732185,water,647.0,220.64,17.9,0.0558659217877095,1.5,10.104695431472082,0.0006048767999999999
970.5,2236.9,29646.0,3.3731e-05,47.188,54.733,91.053,44.351,74.188,1128.6,0.020592,71.943,0.44133,supercritical,H2O,C7732185,water,647.0,220.64,17.9,0.0558659217877095,1.5,10.138234227701235,0.0006037849
970.5,2244.2,29700.0,3.367e-05,47.165,54.722,91.016,44.358,74.153,1130.5,0.020385,72.048,0.44223,supercritical,H2O,C7732185,water,647.0,220.64,17.9,0.0558659217877095,1.5,10.171319796954315,0.000602693
970.5,2251.6,29753.0,3.361e-05,47.143,54.711,90.98,44.365,74.118,1132.5,0.020179,72.152,0.44313,supercritical,H2O,C7732185,water,647.0,220.64,17.9,0.0558659217877095,1.5,10.204858593183467,0.000601619
970.5,2258.9,29806.0,3.355e-05,47.121,54.7,90.943,44.372,74.083,1134.4,0.019975,72.256,0.44403,supercritical,H2O,C7732185,water,647.0,220.64,17.9,0.0558659217877095,1.5,10.23794416243655,0.000600545
970.5,2266.3,29859.0,3.3491e-05,47.099,54.689,90.906,44.379,74.049,1136.3,0.019773,72.36,0.44493,supercritical,H2O,C7732185,water,647.0,220.64,17.9,0.0558659217877095,1.5,10.2714829586657,0.0005994889
970.5,2273.6,29912.0,3.3432e-05,47.077,54.678,90.87,44.386,74.014,1138.2,0.019573,72.463,0.44582,supercritical,H2O,C7732185,water,647.0,220.64,17.9,0.0558659217877095,1.5,10.304568527918782,0.0005984328
970.5,2281.0,29964.0,3.3373e-05,47.055,54.668,90.834,44.393,73.979,1140.1,0.019374,72.567,0.44671,supercritical,H2O,C7732185,water,647.0,220.64,17.9,0.0558659217877095,1.5,10.338107324147934,0.0005973767
970.5,2288.3,30016.0,3.3315e-05,47.034,54.657,90.798,44.4,73.945,1142.0,0.019177,72.67,0.4476,supercritical,H2O,C7732185,water,647.0,220.64,17.9,0.0558659217877095,1.5,10.371192893401016,0.0005963385
970.5,2295.7,30068.0,3.3258e-05,47.012,54.647,90.762,44.407,73.911,1143.9,0.018981,72.773,0.44849,supercritical,H2O,C7732185,water,647.0,220.64,17.9,0.0558659217877095,1.5,10.404731689630166,0.0005953181999999999
970.5,2303.0,30120.0,3.3201e-05,46.99,54.637,90.726,44.414,73.876,1145.8,0.018787,72.876,0.44938,supercritical,H2O,C7732185,water,647.0,220.64,17.9,0.0558659217877095,1.5,10.43781725888325,0.0005942979
970.5,2310.4,30171.0,3.3144e-05,46.969,54.627,90.691,44.421,73.842,1147.7,0.018594,72.979,0.45026,supercritical,H2O,C7732185,water,647.0,220.64,17.9,0.0558659217877095,1.5,10.471356055112402,0.0005932776
970.5,2317.7,30223.0,3.3088e-05,46.948,54.616,90.655,44.427,73.808,1149.6,0.018403,73.081,0.45115,supercritical,H2O,C7732185,water,647.0,220.64,17.9,0.0558659217877095,1.5,10.504441624365482,0.0005922751999999999
970.5,2325.1,30274.0,3.3032e-05,46.926,54.607,90.62,44.434,73.774,1151.5,0.018214,73.184,0.45203,supercritical,H2O,C7732185,water,647.0,220.64,17.9,0.0558659217877095,1.5,10.537980420594634,0.0005912728
970.5,2332.4,30325.0,3.2976e-05,46.905,54.597,90.585,44.441,73.74,1153.4,0.018026,73.286,0.45291,supercritical,H2O,C7732185,water,647.0,220.64,17.9,0.0558659217877095,1.5,10.571065989847718,0.0005902703999999999
970.5,2339.8,30376.0,3.2921e-05,46.884,54.587,90.55,44.448,73.706,1155.3,0.017839,73.388,0.45379,supercritical,H2O,C7732185,water,647.0,220.64,17.9,0.0558659217877095,1.5,10.60460478607687,0.0005892858999999999
970.5,2347.1,30426.0,3.2866e-05,46.863,54.577,90.515,44.455,73.672,1157.2,0.017654,73.49,0.45466,supercritical,H2O,C7732185,water,647.0,220.64,17.9,0.0558659217877095,1.5,10.63769035532995,0.0005883014
970.5,2354.5,30477.0,3.2812e-05,46.842,54.568,90.48,44.462,73.639,1159.0,0.01747,73.591,0.45554,supercritical,H2O,C7732185,water,647.0,220.64,17.9,0.0558659217877095,1.5,10.671229151559102,0.0005873348
970.5,2361.8,30527.0,3.2758e-05,46.822,54.559,90.446,44.468,73.605,1160.9,0.017288,73.693,0.45641,supercritical,H2O,C7732185,water,647.0,220.64,17.9,0.0558659217877095,1.5,10.704314720812183,0.0005863681999999999
970.5,2369.2,30577.0,3.2704e-05,46.801,54.549,90.411,44.475,73.572,1162.8,0.017107,73.794,0.45728,supercritical,H2O,C7732185,water,647.0,220.64,17.9,0.0558659217877095,1.5,10.737853517041334,0.0005854015999999999
970.5,2376.5,30627.0,3.2651e-05,46.78,54.54,90.377,44.482,73.538,1164.6,0.016928,73.895,0.45815,supercritical,H2O,C7732185,water,647.0,220.64,17.9,0.0558659217877095,1.5,10.770939086294417,0.0005844529
970.5,2383.9,30676.0,3.2598e-05,46.76,54.531,90.343,44.489,73.505,1166.5,0.016749,73.996,0.45902,supercritical,H2O,C7732185,water,647.0,220.64,17.9,0.0558659217877095,1.5,10.80447788252357,0.0005835042
970.5,2391.2,30726.0,3.2546e-05,46.74,54.522,90.309,44.495,73.471,1168.4,0.016573,74.097,0.45989,supercritical,H2O,C7732185,water,647.0,220.64,17.9,0.0558659217877095,1.5,10.83756345177665,0.0005825734
970.5,2398.6,30775.0,3.2494e-05,46.719,54.513,90.275,44.502,73.438,1170.2,0.016397,74.197,0.46075,supercritical,H2O,C7732185,water,647.0,220.64,17.9,0.0558659217877095,1.5,10.871102248005801,0.0005816425999999999
970.5,2405.9,30824.0,3.2442e-05,46.699,54.504,90.242,44.509,73.405,1172.1,0.016223,74.298,0.46162,supercritical,H2O,C7732185,water,647.0,220.64,17.9,0.0558659217877095,1.5,10.904187817258885,0.0005807118
970.5,2413.3,30873.0,3.2391e-05,46.679,54.496,90.208,44.515,73.372,1173.9,0.016051,74.398,0.46248,supercritical,H2O,C7732185,water,647.0,220.64,17.9,0.0558659217877095,1.5,10.937726613488037,0.0005797989
970.5,2420.6,30922.0,3.234e-05,46.659,54.487,90.175,44.522,73.339,1175.7,0.015879,74.498,0.46334,supercritical,H2O,C7732185,water,647.0,220.64,17.9,0.0558659217877095,1.5,10.970812182741117,0.0005788859999999999
970.5,2428.0,30970.0,3.2289e-05,46.639,54.478,90.142,44.529,73.307,1177.6,0.015709,74.598,0.4642,supercritical,H2O,C7732185,water,647.0,220.64,17.9,0.0558659217877095,1.5,11.004350978970269,0.0005779731
970.5,2435.3,31019.0,3.2239e-05,46.619,54.47,90.109,44.535,73.274,1179.4,0.01554,74.697,0.46505,supercritical,H2O,C7732185,water,647.0,220.64,17.9,0.0558659217877095,1.5,11.037436548223353,0.0005770781
970.5,2442.6,31067.0,3.2189e-05,46.599,54.462,90.076,44.542,73.241,1181.3,0.015373,74.797,0.46591,supercritical,H2O,C7732185,water,647.0,220.64,17.9,0.0558659217877095,1.5,11.070522117476433,0.0005761831
970.5,2450.0,31115.0,3.2139e-05,46.579,54.453,90.043,44.548,73.209,1183.1,0.015206,74.896,0.46676,supercritical,H2O,C7732185,water,647.0,220.64,17.9,0.0558659217877095,1.5,11.104060913705585,0.0005752880999999999
970.5,2457.3,31162.0,3.209e-05,46.56,54.445,90.01,44.555,73.176,1184.9,0.015041,74.995,0.46762,supercritical,H2O,C7732185,water,647.0,220.64,17.9,0.0558659217877095,1.5,11.137146482958666,0.0005744109999999999
970.5,2464.7,31210.0,3.2041e-05,46.54,54.437,89.977,44.562,73.144,1186.7,0.014877,75.094,0.46847,supercritical,H2O,C7732185,water,647.0,220.64,17.9,0.0558659217877095,1.5,11.170685279187817,0.0005735339
970.5,2472.0,31258.0,3.1992e-05,46.521,54.429,89.945,44.568,73.111,1188.5,0.014714,75.193,0.46932,supercritical,H2O,C7732185,water,647.0,220.64,17.9,0.0558659217877095,1.5,11.2037708484409,0.0005726568
970.5,2479.4,31305.0,3.1944e-05,46.501,54.421,89.913,44.575,73.079,1190.4,0.014553,75.291,0.47016,supercritical,H2O,C7732185,water,647.0,220.64,17.9,0.0558659217877095,1.5,11.237309644670052,0.0005717976
970.5,2486.7,31352.0,3.1896e-05,46.482,54.414,89.881,44.581,73.047,1192.2,0.014393,75.39,0.47101,supercritical,H2O,C7732185,water,647.0,220.64,17.9,0.0558659217877095,1.5,11.270395213923132,0.0005709384
970.5,2494.1,31399.0,3.1848e-05,46.463,54.406,89.849,44.588,73.015,1194.0,0.014233,75.488,0.47186,supercritical,H2O,C7732185,water,647.0,220.64,17.9,0.0558659217877095,1.5,11.303934010152284,0.0005700791999999999
970.5,2501.4,31446.0,3.1801e-05,46.444,54.398,89.817,44.594,72.983,1195.8,0.014075,75.586,0.4727,supercritical,H2O,C7732185,water,647.0,220.64,17.9,0.0558659217877095,1.5,11.337019579405368,0.0005692379
970.5,2508.8,31492.0,3.1754e-05,46.425,54.391,89.785,44.601,72.951,1197.6,0.013918,75.684,0.47354,supercritical,H2O,C7732185,water,647.0,220.64,17.9,0.0558659217877095,1.5,11.37055837563452,0.0005683966
970.5,2516.1,31539.0,3.1707e-05,46.406,54.383,89.753,44.607,72.92,1199.4,0.013763,75.782,0.47438,supercritical,H2O,C7732185,water,647.0,220.64,17.9,0.0558659217877095,1.5,11.4036439448876,0.0005675553
970.5,2523.5,31585.0,3.1661e-05,46.387,54.376,89.722,44.614,72.888,1201.2,0.013608,75.879,0.47522,supercritical,H2O,C7732185,water,647.0,220.64,17.9,0.0558659217877095,1.5,11.437182741116752,0.0005667319
970.5,2530.8,31631.0,3.1614e-05,46.368,54.369,89.69,44.62,72.856,1203.0,0.013455,75.977,0.47606,supercritical,H2O,C7732185,water,647.0,220.64,17.9,0.0558659217877095,1.5,11.470268310369836,0.0005658906
970.5,2538.2,31677.0,3.1569e-05,46.349,54.362,89.659,44.627,72.825,1204.8,0.013302,76.074,0.4769,supercritical,H2O,C7732185,water,647.0,220.64,17.9,0.0558659217877095,1.5,11.503807106598984,0.0005650851
970.5,2545.5,31723.0,3.1523e-05,46.33,54.355,89.628,44.633,72.793,1206.5,0.013151,76.171,0.47773,supercritical,H2O,C7732185,water,647.0,220.64,17.9,0.0558659217877095,1.5,11.536892675852068,0.0005642617000000001
970.5,2552.9,31768.0,3.1478e-05,46.312,54.348,89.597,44.639,72.762,1208.3,0.013,76.268,0.47856,supercritical,H2O,C7732185,water,647.0,220.64,17.9,0.0558659217877095,1.5,11.57043147208122,0.0005634561999999999
970.5,2560.2,31814.0,3.1433e-05,46.293,54.341,89.566,44.646,72.731,1210.1,0.012851,76.365,0.4794,supercritical,H2O,C7732185,water,647.0,220.64,17.9,0.0558659217877095,1.5,11.6035170413343,0.0005626507
970.5,2567.6,31859.0,3.1388e-05,46.275,54.334,89.535,44.652,72.7,1211.9,0.012703,76.461,0.48023,supercritical,H2O,C7732185,water,647.0,220.64,17.9,0.0558659217877095,1.5,11.637055837563452,0.0005618451999999999
970.5,2574.9,31904.0,3.1344e-05,46.256,54.327,89.504,44.659,72.669,1213.7,0.012556,76.558,0.48106,supercritical,H2O,C7732185,water,647.0,220.64,17.9,0.0558659217877095,1.5,11.670141406816535,0.0005610575999999999
970.5,2582.3,31949.0,3.13e-05,46.238,54.321,89.474,44.665,72.638,1215.4,0.01241,76.654,0.48189,supercritical,H2O,C7732185,water,647.0,220.64,17.9,0.0558659217877095,1.5,11.703680203045687,0.00056027
970.5,2589.6,31994.0,3.1256e-05,46.22,54.314,89.443,44.671,72.607,1217.2,0.012265,76.75,0.48271,supercritical,H2O,C7732185,water,647.0,220.64,17.9,0.0558659217877095,1.5,11.736765772298767,0.0005594824
970.5,2597.0,32039.0,3.1212e-05,46.202,54.307,89.413,44.678,72.576,1219.0,0.01212,76.846,0.48354,supercritical,H2O,C7732185,water,647.0,220.64,17.9,0.0558659217877095,1.5,11.77030456852792,0.0005586947999999999
970.5,2604.3,32083.0,3.1169e-05,46.184,54.301,89.383,44.684,72.545,1220.7,0.011977,76.941,0.48436,supercritical,H2O,C7732185,water,647.0,220.64,17.9,0.0558659217877095,1.5,11.803390137781003,0.0005579251
970.5,2611.7,32128.0,3.1126e-05,46.166,54.295,89.352,44.69,72.515,1222.5,0.011835,77.037,0.48519,supercritical,H2O,C7732185,water,647.0,220.64,17.9,0.0558659217877095,1.5,11.836928934010151,0.0005571554
970.5,2619.0,32172.0,3.1083e-05,46.148,54.288,89.322,44.697,72.484,1224.2,0.011694,77.132,0.48601,supercritical,H2O,C7732185,water,647.0,220.64,17.9,0.0558659217877095,1.5,11.870014503263235,0.0005563857
970.5,2626.4,32216.0,3.1041e-05,46.13,54.282,89.293,44.703,72.454,1226.0,0.011554,77.227,0.48683,supercritical,H2O,C7732185,water,647.0,220.64,17.9,0.0558659217877095,1.5,11.903553299492387,0.0005556339
970.5,2633.7,32260.0,3.0998e-05,46.112,54.276,89.263,44.709,72.423,1227.7,0.011415,77.323,0.48765,supercritical,H2O,C7732185,water,647.0,220.64,17.9,0.0558659217877095,1.5,11.936638868745467,0.0005548641999999999
970.5,2641.1,32304.0,3.0956e-05,46.094,54.27,89.233,44.716,72.393,1229.5,0.011276,77.417,0.48847,supercritical,H2O,C7732185,water,647.0,220.64,17.9,0.0558659217877095,1.5,11.970177664974619,0.0005541124
970.5,2648.4,32347.0,3.0915e-05,46.077,54.264,89.203,44.722,72.363,1231.2,0.011139,77.512,0.48928,supercritical,H2O,C7732185,water,647.0,220.64,17.9,0.0558659217877095,1.5,12.003263234227703,0.0005533784999999999
970.5,2655.7,32391.0,3.0873e-05,46.059,54.258,89.174,44.728,72.333,1232.9,0.011003,77.607,0.4901,supercritical,H2O,C7732185,water,647.0,220.64,17.9,0.0558659217877095,1.5,12.036348803480783,0.0005526267
970.5,2663.1,32434.0,3.0832e-05,46.042,54.252,89.145,44.734,72.303,1234.7,0.010867,77.701,0.49091,supercritical,H2O,C7732185,water,647.0,220.64,17.9,0.0558659217877095,1.5,12.069887599709935,0.0005518928
970.5,2670.4,32477.0,3.0791e-05,46.024,54.247,89.115,44.741,72.273,1236.4,0.010732,77.795,0.49173,supercritical,H2O,C7732185,water,647.0,220.64,17.9,0.0558659217877095,1.5,12.102973168963018,0.0005511588999999999
970.5,2677.8,32520.0,3.075e-05,46.007,54.241,89.086,44.747,72.243,1238.1,0.010599,77.889,0.49254,supercritical,H2O,C7732185,water,647.0,220.64,17.9,0.0558659217877095,1.5,12.13651196519217,0.000550425
970.5,2685.1,32563.0,3.071e-05,45.989,54.235,89.057,44.753,72.213,1239.9,0.010466,77.983,0.49335,supercritical,H2O,C7732185,water,647.0,220.64,17.9,0.0558659217877095,1.5,12.16959753444525,0.000549709
970.5,2692.5,32606.0,3.0669e-05,45.972,54.23,89.028,44.759,72.183,1241.6,0.010334,78.077,0.49416,supercritical,H2O,C7732185,water,647.0,220.64,17.9,0.0558659217877095,1.5,12.203136330674402,0.0005489751
970.5,2699.8,32648.0,3.0629e-05,45.955,54.224,89.0,44.765,72.154,1243.3,0.010203,78.171,0.49497,supercritical,H2O,C7732185,water,647.0,220.64,17.9,0.0558659217877095,1.5,12.236221899927486,0.0005482591
970.5,2707.2,32691.0,3.059e-05,45.938,54.219,88.971,44.772,72.124,1245.0,0.010073,78.264,0.49577,supercritical,H2O,C7732185,water,647.0,220.64,17.9,0.0558659217877095,1.5,12.269760696156634,0.0005475609999999999
970.5,2714.5,32733.0,3.055e-05,45.921,54.214,88.942,44.778,72.095,1246.7,0.0099435,78.357,0.49658,supercritical,H2O,C7732185,water,647.0,220.64,17.9,0.0558659217877095,1.5,12.302846265409718,0.0005468449999999999
970.5,2721.9,32775.0,3.0511e-05,45.904,54.209,88.914,44.784,72.066,1248.4,0.009815,78.45,0.49738,supercritical,H2O,C7732185,water,647.0,220.64,17.9,0.0558659217877095,1.5,12.33638506163887,0.0005461468999999999
970.5,2729.2,32817.0,3.0472e-05,45.887,54.203,88.885,44.79,72.036,1250.1,0.0096873,78.543,0.49819,supercritical,H2O,C7732185,water,647.0,220.64,17.9,0.0558659217877095,1.5,12.36947063089195,0.0005454488
970.5,2736.6,32859.0,3.0433e-05,45.87,54.198,88.857,44.796,72.007,1251.8,0.0095605,78.636,0.49899,supercritical,H2O,C7732185,water,647.0,220.64,17.9,0.0558659217877095,1.5,12.403009427121102,0.0005447507
970.5,2743.9,32901.0,3.0394e-05,45.853,54.193,88.829,44.802,71.978,1253.5,0.0094345,78.729,0.49979,supercritical,H2O,C7732185,water,647.0,220.64,17.9,0.0558659217877095,1.5,12.436094996374186,0.0005440525999999999
970.5,2751.3,32943.0,3.0356e-05,45.837,54.188,88.801,44.808,71.949,1255.2,0.0093093,78.821,0.50059,supercritical,H2O,C7732185,water,647.0,220.64,17.9,0.0558659217877095,1.5,12.469633792603338,0.0005433723999999999
970.5,2758.6,32984.0,3.0317e-05,45.82,54.183,88.773,44.815,71.92,1256.9,0.0091849,78.913,0.50139,supercritical,H2O,C7732185,water,647.0,220.64,17.9,0.0558659217877095,1.5,12.502719361856418,0.0005426743
970.5,2766.0,33026.0,3.0279e-05,45.803,54.179,88.745,44.821,71.891,1258.6,0.0090614,79.005,0.50219,supercritical,H2O,C7732185,water,647.0,220.64,17.9,0.0558659217877095,1.5,12.53625815808557,0.0005419941
970.5,2773.3,33067.0,3.0242e-05,45.787,54.174,88.717,44.827,71.863,1260.3,0.0089386,79.097,0.50298,supercritical,H2O,C7732185,water,647.0,220.64,17.9,0.0558659217877095,1.5,12.569343727338653,0.0005413318
970.5,2780.7,33108.0,3.0204e-05,45.77,54.169,88.689,44.833,71.834,1262.0,0.0088166,79.189,0.50378,supercritical,H2O,C7732185,water,647.0,220.64,17.9,0.0558659217877095,1.5,12.602882523567803,0.0005406515999999999
970.5,2788.0,33149.0,3.0167e-05,45.754,54.165,88.662,44.839,71.805,1263.7,0.0086954,79.281,0.50457,supercritical,H2O,C7732185,water,647.0,220.64,17.9,0.0558659217877095,1.5,12.635968092820885,0.0005399892999999999
970.5,2795.4,33190.0,3.013e-05,45.738,54.16,88.634,44.845,71.777,1265.4,0.0085749,79.372,0.50537,supercritical,H2O,C7732185,water,647.0,220.64,17.9,0.0558659217877095,1.5,12.669506889050037,0.000539327