Temperature (K),Pressure (bar),Density (mol/m3),Volume (m3/mol),Internal Energy (kJ/mol),Enthalpy (kJ/mol),Entropy (J/mol*K),Cv (J/mol*K),Cp (J/mol*K),Sound Spd. (m/s),Joule-Thomson (K/bar),Viscosity (uPa*s),Therm. Cond. (W/m*K),Phase,substance,substance_id,substance_name,Tc,Pc,rhoc,Vmc,Tr,Pr,Vmr
154.58,263.08,28365.0,3.5255e-05,-1.3511,-0.42363,119.55,26.065,54.457,639.21,-0.010523,79.966,0.097043,liquid,O2,C7782447,oxygen,154.58,50.43,13.6,0.07352941176470588,1.0,5.2167360697997225,0.000479468
154.58,264.44,28387.0,3.5228e-05,-1.3544,-0.42284,119.52,26.071,54.398,640.36,-0.01072,80.134,0.0972,liquid,O2,C7782447,oxygen,154.58,50.43,13.6,0.07352941176470588,1.0,5.243704144358516,0.0004791008
154.58,265.81,28408.0,3.5201e-05,-1.3577,-0.42204,119.5,26.076,54.34,641.5,-0.010915,80.301,0.097357,liquid,O2,C7782447,oxygen,154.58,50.43,13.6,0.07352941176470588,1.0,5.270870513583184,0.00047873359999999995
154.58,267.18,28430.0,3.5174e-05,-1.361,-0.42122,119.47,26.082,54.282,642.64,-0.011109,80.468,0.097514,liquid,O2,C7782447,oxygen,154.58,50.43,13.6,0.07352941176470588,1.0,5.298036882807852,0.00047836639999999995
154.58,268.54,28451.0,3.5148e-05,-1.3642,-0.42039,119.45,26.087,54.224,643.77,-0.0113,80.635,0.09767,liquid,O2,C7782447,oxygen,154.58,50.43,13.6,0.07352941176470588,1.0,5.325004957366647,0.00047801280000000005
154.58,269.9,28473.0,3.5121e-05,-1.3675,-0.41955,119.42,26.093,54.168,644.9,-0.01149,80.801,0.097826,liquid,O2,C7782447,oxygen,154.58,50.43,13.6,0.07352941176470588,1.0,5.351973031925441,0.00047764559999999995
154.58,271.27,28494.0,3.5095e-05,-1.3707,-0.41869,119.39,26.098,54.112,646.02,-0.011678,80.967,0.097982,liquid,O2,C7782447,oxygen,154.58,50.43,13.6,0.07352941176470588,1.0,5.379139401150109,0.00047729200000000004
154.58,272.63,28515.0,3.5069e-05,-1.3739,-0.41782,119.37,26.104,54.056,647.14,-0.011864,81.133,0.098137,liquid,O2,C7782447,oxygen,154.58,50.43,13.6,0.07352941176470588,1.0,5.406107475708903,0.00047693839999999997
154.58,274.0,28536.0,3.5043e-05,-1.3771,-0.41694,119.34,26.109,54.001,648.25,-0.012048,81.298,0.098292,liquid,O2,C7782447,oxygen,154.58,50.43,13.6,0.07352941176470588,1.0,5.433273844933571,0.0004765848
154.58,275.37,28557.0,3.5018e-05,-1.3803,-0.41605,119.32,26.115,53.947,649.36,-0.012231,81.463,0.098446,liquid,O2,C7782447,oxygen,154.58,50.43,13.6,0.07352941176470588,1.0,5.460440214158239,0.0004762448
154.58,276.73,28578.0,3.4992e-05,-1.3835,-0.41514,119.29,26.12,53.893,650.47,-0.012412,81.628,0.0986,liquid,O2,C7782447,oxygen,154.58,50.43,13.6,0.07352941176470588,1.0,5.487408288717034,0.0004758912
154.58,278.1,28599.0,3.4967e-05,-1.3866,-0.41422,119.27,26.126,53.839,651.57,-0.012591,81.792,0.098754,liquid,O2,C7782447,oxygen,154.58,50.43,13.6,0.07352941176470588,1.0,5.514574657941702,0.00047555119999999996
154.58,279.46,28619.0,3.4941e-05,-1.3898,-0.41329,119.24,26.132,53.786,652.66,-0.012769,81.956,0.098907,liquid,O2,C7782447,oxygen,154.58,50.43,13.6,0.07352941176470588,1.0,5.541542732500496,0.00047519760000000005
154.58,280.82,28640.0,3.4916e-05,-1.3929,-0.41235,119.22,26.137,53.734,653.75,-0.012945,82.12,0.09906,liquid,O2,C7782447,oxygen,154.58,50.43,13.6,0.07352941176470588,1.0,5.56851080705929,0.0004748576
154.58,282.19,28660.0,3.4891e-05,-1.396,-0.41139,119.19,26.143,53.682,654.84,-0.013119,82.284,0.099213,liquid,O2,C7782447,oxygen,154.58,50.43,13.6,0.07352941176470588,1.0,5.595677176283958,0.0004745176
154.58,283.56,28681.0,3.4867e-05,-1.3991,-0.41042,119.17,26.148,53.631,655.93,-0.013292,82.447,0.099365,liquid,O2,C7782447,oxygen,154.58,50.43,13.6,0.07352941176470588,1.0,5.622843545508626,0.00047419119999999996
154.58,284.92,28701.0,3.4842e-05,-1.4022,-0.40944,119.15,26.154,53.58,657.01,-0.013463,82.61,0.099517,liquid,O2,C7782447,oxygen,154.58,50.43,13.6,0.07352941176470588,1.0,5.64981162006742,0.00047385120000000003
154.58,286.29,28721.0,3.4817e-05,-1.4052,-0.40845,119.12,26.159,53.529,658.08,-0.013633,82.773,0.099668,liquid,O2,C7782447,oxygen,154.58,50.43,13.6,0.07352941176470588,1.0,5.676977989292088,0.00047351120000000004
154.58,287.65,28741.0,3.4793e-05,-1.4083,-0.40745,119.1,26.165,53.479,659.15,-0.013802,82.935,0.099819,liquid,O2,C7782447,oxygen,154.58,50.43,13.6,0.07352941176470588,1.0,5.703946063850882,0.0004731847999999999
154.58,289.01,28761.0,3.4769e-05,-1.4113,-0.40644,119.07,26.171,53.43,660.22,-0.013969,83.097,0.09997,liquid,O2,C7782447,oxygen,154.58,50.43,13.6,0.07352941176470588,1.0,5.730914138409677,0.00047285839999999997
154.58,290.38,28781.0,3.4745e-05,-1.4143,-0.40541,119.05,26.176,53.381,661.28,-0.014134,83.259,0.10012,liquid,O2,C7782447,oxygen,154.58,50.43,13.6,0.07352941176470588,1.0,5.758080507634345,0.000472532
154.58,291.75,28801.0,3.4721e-05,-1.4173,-0.40438,119.02,26.182,53.332,662.34,-0.014298,83.42,0.10027,liquid,O2,C7782447,oxygen,154.58,50.43,13.6,0.07352941176470588,1.0,5.785246876859013,0.0004722056
154.58,293.11,28821.0,3.4697e-05,-1.4203,-0.40333,119.0,26.187,53.284,663.4,-0.01446,83.581,0.10042,liquid,O2,C7782447,oxygen,154.58,50.43,13.6,0.07352941176470588,1.0,5.812214951417807,0.00047187919999999993
154.58,294.48,28841.0,3.4673e-05,-1.4233,-0.40228,118.98,26.193,53.236,664.45,-0.014622,83.742,0.10057,liquid,O2,C7782447,oxygen,154.58,50.43,13.6,0.07352941176470588,1.0,5.839381320642475,0.0004715528
154.58,295.84,28860.0,3.465e-05,-1.4263,-0.40121,118.95,26.199,53.189,665.49,-0.014781,83.903,0.10072,liquid,O2,C7782447,oxygen,154.58,50.43,13.6,0.07352941176470588,1.0,5.866349395201269,0.00047124
154.58,297.2,28880.0,3.4626e-05,-1.4292,-0.40013,118.93,26.204,53.142,666.54,-0.01494,84.063,0.10087,liquid,O2,C7782447,oxygen,154.58,50.43,13.6,0.07352941176470588,1.0,5.893317469760063,0.00047091359999999993
154.58,298.57,28899.0,3.4603e-05,-1.4322,-0.39904,118.91,26.21,53.095,667.58,-0.015097,84.224,0.10102,liquid,O2,C7782447,oxygen,154.58,50.43,13.6,0.07352941176470588,1.0,5.920483838984731,0.0004706008
154.58,299.94,28919.0,3.458e-05,-1.4351,-0.39794,118.88,26.215,53.049,668.61,-0.015252,84.383,0.10116,liquid,O2,C7782447,oxygen,154.58,50.43,13.6,0.07352941176470588,1.0,5.947650208209399,0.00047028799999999997
154.58,301.3,28938.0,3.4557e-05,-1.438,-0.39683,118.86,26.221,53.004,669.65,-0.015407,84.543,0.10131,liquid,O2,C7782447,oxygen,154.58,50.43,13.6,0.07352941176470588,1.0,5.974618282768194,0.0004699752
154.58,302.67,28957.0,3.4534e-05,-1.4409,-0.39571,118.84,26.227,52.958,670.67,-0.01556,84.702,0.10146,liquid,O2,C7782447,oxygen,154.58,50.43,13.6,0.07352941176470588,1.0,6.001784651992862,0.00046966239999999995
154.58,304.03,28976.0,3.4511e-05,-1.4438,-0.39458,118.81,26.232,52.913,671.7,-0.015712,84.862,0.10161,liquid,O2,C7782447,oxygen,154.58,50.43,13.6,0.07352941176470588,1.0,6.028752726551655,0.0004693496
154.58,305.39,28995.0,3.4489e-05,-1.4467,-0.39344,118.79,26.238,52.869,672.72,-0.015862,85.02,0.10175,liquid,O2,C7782447,oxygen,154.58,50.43,13.6,0.07352941176470588,1.0,6.05572080111045,0.0004690504
154.58,306.76,29014.0,3.4466e-05,-1.4496,-0.39229,118.77,26.243,52.825,673.74,-0.016011,85.179,0.1019,liquid,O2,C7782447,oxygen,154.58,50.43,13.6,0.07352941176470588,1.0,6.082887170335118,0.0004687376
154.58,308.12,29033.0,3.4444e-05,-1.4524,-0.39113,118.74,26.249,52.781,674.75,-0.016159,85.337,0.10205,liquid,O2,C7782447,oxygen,154.58,50.43,13.6,0.07352941176470588,1.0,6.109855244893913,0.0004684384
154.58,309.49,29052.0,3.4421e-05,-1.4553,-0.38996,118.72,26.255,52.738,675.76,-0.016306,85.495,0.10219,liquid,O2,C7782447,oxygen,154.58,50.43,13.6,0.07352941176470588,1.0,6.137021614118581,0.0004681256
154.58,310.86,29070.0,3.4399e-05,-1.4581,-0.38879,118.7,26.26,52.695,676.77,-0.016452,85.653,0.10234,liquid,O2,C7782447,oxygen,154.58,50.43,13.6,0.07352941176470588,1.0,6.164187983343249,0.0004678264
154.58,312.22,29089.0,3.4377e-05,-1.4609,-0.3876,118.68,26.266,52.652,677.77,-0.016596,85.811,0.10248,liquid,O2,C7782447,oxygen,154.58,50.43,13.6,0.07352941176470588,1.0,6.191156057902043,0.0004675272
154.58,313.58,29108.0,3.4355e-05,-1.4637,-0.3864,118.65,26.271,52.61,678.77,-0.01674,85.968,0.10263,liquid,O2,C7782447,oxygen,154.58,50.43,13.6,0.07352941176470588,1.0,6.2181241324608365,0.000467228
154.58,314.95,29126.0,3.4333e-05,-1.4665,-0.38519,118.63,26.277,52.568,679.77,-0.016882,86.125,0.10277,liquid,O2,C7782447,oxygen,154.58,50.43,13.6,0.07352941176470588,1.0,6.2452905016855045,0.0004669288
154.58,316.31,29145.0,3.4312e-05,-1.4693,-0.38398,118.61,26.283,52.527,680.76,-0.017023,86.282,0.10292,liquid,O2,C7782447,oxygen,154.58,50.43,13.6,0.07352941176470588,1.0,6.272258576244299,0.0004666432
154.58,317.68,29163.0,3.429e-05,-1.4721,-0.38275,118.59,26.288,52.485,681.75,-0.017162,86.439,0.10306,liquid,O2,C7782447,oxygen,154.58,50.43,13.6,0.07352941176470588,1.0,6.299424945468967,0.000466344
154.58,319.05,29181.0,3.4269e-05,-1.4748,-0.38152,118.56,26.294,52.445,682.74,-0.017301,86.595,0.1032,liquid,O2,C7782447,oxygen,154.58,50.43,13.6,0.07352941176470588,1.0,6.326591314693635,0.00046605839999999996
154.58,320.41,29200.0,3.4247e-05,-1.4776,-0.38028,118.54,26.299,52.404,683.73,-0.017439,86.751,0.10335,liquid,O2,C7782447,oxygen,154.58,50.43,13.6,0.07352941176470588,1.0,6.35355938925243,0.00046575919999999996
154.58,321.77,29218.0,3.4226e-05,-1.4803,-0.37902,118.52,26.305,52.364,684.71,-0.017575,86.907,0.10349,liquid,O2,C7782447,oxygen,154.58,50.43,13.6,0.07352941176470588,1.0,6.380527463811223,0.0004654736
154.58,323.14,29236.0,3.4205e-05,-1.4831,-0.37776,118.5,26.311,52.324,685.68,-0.017711,87.063,0.10363,liquid,O2,C7782447,oxygen,154.58,50.43,13.6,0.07352941176470588,1.0,6.407693833035891,0.000465188
154.58,324.5,29254.0,3.4184e-05,-1.4858,-0.37649,118.47,26.316,52.285,686.66,-0.017845,87.219,0.10377,liquid,O2,C7782447,oxygen,154.58,50.43,13.6,0.07352941176470588,1.0,6.434661907594686,0.0004649023999999999
154.58,325.87,29272.0,3.4163e-05,-1.4885,-0.37522,118.45,26.322,52.245,687.63,-0.017979,87.374,0.10392,liquid,O2,C7782447,oxygen,154.58,50.43,13.6,0.07352941176470588,1.0,6.461828276819354,0.00046461679999999995
154.58,327.24,29290.0,3.4142e-05,-1.4912,-0.37393,118.43,26.327,52.206,688.6,-0.018111,87.529,0.10406,liquid,O2,C7782447,oxygen,154.58,50.43,13.6,0.07352941176470588,1.0,6.488994646044022,0.00046433119999999997
154.58,328.6,29307.0,3.4121e-05,-1.4939,-0.37263,118.41,26.333,52.168,689.56,-0.018242,87.684,0.1042,liquid,O2,C7782447,oxygen,154.58,50.43,13.6,0.07352941176470588,1.0,6.515962720602817,0.0004640456
154.58,329.96,29325.0,3.41e-05,-1.4965,-0.37133,118.39,26.339,52.13,690.52,-0.018372,87.838,0.10434,liquid,O2,C7782447,oxygen,154.58,50.43,13.6,0.07352941176470588,1.0,6.54293079516161,0.00046376
154.58,331.33,29343.0,3.408e-05,-1.4992,-0.37002,118.37,26.344,52.092,691.48,-0.018502,87.993,0.10448,liquid,O2,C7782447,oxygen,154.58,50.43,13.6,0.07352941176470588,1.0,6.5700971643862776,0.00046348799999999996
154.58,332.69,29360.0,3.4059e-05,-1.5018,-0.3687,118.34,26.35,52.054,692.44,-0.01863,88.147,0.10462,liquid,O2,C7782447,oxygen,154.58,50.43,13.6,0.07352941176470588,1.0,6.597065238945072,0.0004632024
154.58,334.06,29378.0,3.4039e-05,-1.5045,-0.36737,118.32,26.355,52.017,693.39,-0.018757,88.301,0.10476,liquid,O2,C7782447,oxygen,154.58,50.43,13.6,0.07352941176470588,1.0,6.62423160816974,0.00046293039999999993
154.58,335.43,29395.0,3.4019e-05,-1.5071,-0.36604,118.3,26.361,51.979,694.34,-0.018884,88.455,0.1049,liquid,O2,C7782447,oxygen,154.58,50.43,13.6,0.07352941176470588,1.0,6.651397977394408,0.0004626584
154.58,336.79,29413.0,3.3999e-05,-1.5097,-0.36469,118.28,26.366,51.943,695.29,-0.019009,88.608,0.10504,liquid,O2,C7782447,oxygen,154.58,50.43,13.6,0.07352941176470588,1.0,6.678366051953203,0.00046238639999999993
154.58,338.15,29430.0,3.3979e-05,-1.5123,-0.36334,118.26,26.372,51.906,696.23,-0.019134,88.762,0.10518,liquid,O2,C7782447,oxygen,154.58,50.43,13.6,0.07352941176470588,1.0,6.705334126511996,0.0004621144
154.58,339.52,29447.0,3.3959e-05,-1.5149,-0.36198,118.24,26.377,51.87,697.17,-0.019257,88.915,0.10532,liquid,O2,C7782447,oxygen,154.58,50.43,13.6,0.07352941176470588,1.0,6.732500495736664,0.00046184239999999993
154.58,340.88,29465.0,3.3939e-05,-1.5175,-0.36061,118.22,26.383,51.834,698.11,-0.01938,89.068,0.10546,liquid,O2,C7782447,oxygen,154.58,50.43,13.6,0.07352941176470588,1.0,6.759468570295459,0.0004615704
154.58,342.25,29482.0,3.3919e-05,-1.5201,-0.35924,118.2,26.389,51.798,699.04,-0.019501,89.221,0.1056,liquid,O2,C7782447,oxygen,154.58,50.43,13.6,0.07352941176470588,1.0,6.786634939520127,0.0004612984
154.58,343.62,29499.0,3.3899e-05,-1.5227,-0.35786,118.17,26.394,51.763,699.98,-0.019622,89.373,0.10574,liquid,O2,C7782447,oxygen,154.58,50.43,13.6,0.07352941176470588,1.0,6.813801308744795,0.0004610264
154.58,344.98,29516.0,3.388e-05,-1.5253,-0.35647,118.15,26.4,51.728,700.91,-0.019742,89.525,0.10588,liquid,O2,C7782447,oxygen,154.58,50.43,13.6,0.07352941176470588,1.0,6.84076938330359,0.000460768
154.58,346.35,29533.0,3.386e-05,-1.5278,-0.35507,118.13,26.405,51.693,701.83,-0.019861,89.678,0.10601,liquid,O2,C7782447,oxygen,154.58,50.43,13.6,0.07352941176470588,1.0,6.867935752528258,0.00046049599999999996
154.58,347.71,29550.0,3.3841e-05,-1.5304,-0.35366,118.11,26.411,51.658,702.76,-0.019979,89.83,0.10615,liquid,O2,C7782447,oxygen,154.58,50.43,13.6,0.07352941176470588,1.0,6.894903827087051,0.00046023759999999994
154.58,349.07,29567.0,3.3822e-05,-1.5329,-0.35225,118.09,26.416,51.624,703.68,-0.020096,89.981,0.10629,liquid,O2,C7782447,oxygen,154.58,50.43,13.6,0.07352941176470588,1.0,6.921871901645845,0.0004599792
154.58,350.44,29584.0,3.3803e-05,-1.5354,-0.35083,118.07,26.422,51.59,704.6,-0.020213,90.133,0.10643,liquid,O2,C7782447,oxygen,154.58,50.43,13.6,0.07352941176470588,1.0,6.949038270870513,0.0004597208
154.58,351.81,29600.0,3.3783e-05,-1.5379,-0.3494,118.05,26.427,51.556,705.51,-0.020328,90.284,0.10656,liquid,O2,C7782447,oxygen,154.58,50.43,13.6,0.07352941176470588,1.0,6.976204640095181,0.00045944879999999994
154.58,353.17,29617.0,3.3764e-05,-1.5404,-0.34797,118.03,26.433,51.523,706.43,-0.020443,90.435,0.1067,liquid,O2,C7782447,oxygen,154.58,50.43,13.6,0.07352941176470588,1.0,7.003172714653976,0.0004591904
154.58,354.54,29634.0,3.3745e-05,-1.5429,-0.34653,118.01,26.438,51.489,707.34,-0.020557,90.586,0.10684,liquid,O2,C7782447,oxygen,154.58,50.43,13.6,0.07352941176470588,1.0,7.030339083878644,0.000458932
154.58,355.9,29650.0,3.3727e-05,-1.5454,-0.34508,117.99,26.444,51.456,708.25,-0.02067,90.737,0.10697,liquid,O2,C7782447,oxygen,154.58,50.43,13.6,0.07352941176470588,1.0,7.057307158437438,0.00045868719999999995
154.58,357.26,29667.0,3.3708e-05,-1.5479,-0.34363,117.97,26.449,51.423,709.15,-0.020782,90.888,0.10711,liquid,O2,C7782447,oxygen,154.58,50.43,13.6,0.07352941176470588,1.0,7.084275232996232,0.00045842880000000004
154.58,358.63,29683.0,3.3689e-05,-1.5504,-0.34216,117.95,26.455,51.391,710.05,-0.020894,91.038,0.10724,liquid,O2,C7782447,oxygen,154.58,50.43,13.6,0.07352941176470588,1.0,7.1114416022209,0.0004581704
154.58,360.0,29700.0,3.367e-05,-1.5528,-0.34069,117.93,26.46,51.358,710.96,-0.021005,91.189,0.10738,liquid,O2,C7782447,oxygen,154.58,50.43,13.6,0.07352941176470588,1.0,7.138607971445568,0.000457912
154.58,361.36,29716.0,3.3652e-05,-1.5553,-0.33922,117.91,26.466,51.326,711.85,-0.021114,91.339,0.10751,liquid,O2,C7782447,oxygen,154.58,50.43,13.6,0.07352941176470588,1.0,7.165576046004363,0.0004576672
154.58,362.73,29732.0,3.3633e-05,-1.5577,-0.33774,117.89,26.471,51.294,712.75,-0.021224,91.489,0.10765,liquid,O2,C7782447,oxygen,154.58,50.43,13.6,0.07352941176470588,1.0,7.192742415229031,0.0004574088
154.58,364.09,29749.0,3.3615e-05,-1.5601,-0.33625,117.87,26.477,51.263,713.64,-0.021332,91.638,0.10778,liquid,O2,C7782447,oxygen,154.58,50.43,13.6,0.07352941176470588,1.0,7.219710489787825,0.00045716400000000003
154.58,365.45,29765.0,3.3597e-05,-1.5626,-0.33475,117.85,26.482,51.231,714.53,-0.02144,91.788,0.10792,liquid,O2,C7782447,oxygen,154.58,50.43,13.6,0.07352941176470588,1.0,7.2466785643466185,0.0004569191999999999
154.58,366.82,29781.0,3.3579e-05,-1.565,-0.33325,117.83,26.487,51.2,715.42,-0.021546,91.937,0.10805,liquid,O2,C7782447,oxygen,154.58,50.43,13.6,0.07352941176470588,1.0,7.2738449335712865,0.0004566744
154.58,368.19,29797.0,3.356e-05,-1.5674,-0.33174,117.81,26.493,51.169,716.31,-0.021653,92.086,0.10819,liquid,O2,C7782447,oxygen,154.58,50.43,13.6,0.07352941176470588,1.0,7.3010113027959544,0.00045641599999999996
154.58,369.55,29813.0,3.3542e-05,-1.5698,-0.33022,117.79,26.498,51.138,717.19,-0.021758,92.235,0.10832,liquid,O2,C7782447,oxygen,154.58,50.43,13.6,0.07352941176470588,1.0,7.327979377354749,0.00045617119999999997
154.58,370.92,29829.0,3.3524e-05,-1.5722,-0.3287,117.77,26.504,51.108,718.07,-0.021863,92.384,0.10845,liquid,O2,C7782447,oxygen,154.58,50.43,13.6,0.07352941176470588,1.0,7.355145746579417,0.00045592639999999997
154.58,372.28,29845.0,3.3507e-05,-1.5746,-0.32717,117.75,26.509,51.077,718.95,-0.021967,92.533,0.10859,liquid,O2,C7782447,oxygen,154.58,50.43,13.6,0.07352941176470588,1.0,7.382113821138211,0.0004556952
154.58,373.64,29861.0,3.3489e-05,-1.5769,-0.32564,117.73,26.515,51.047,719.82,-0.02207,92.681,0.10872,liquid,O2,C7782447,oxygen,154.58,50.43,13.6,0.07352941176470588,1.0,7.409081895697006,0.00045545039999999996
154.58,375.01,29877.0,3.3471e-05,-1.5793,-0.3241,117.71,26.52,51.017,720.7,-0.022172,92.83,0.10885,liquid,O2,C7782447,oxygen,154.58,50.43,13.6,0.07352941176470588,1.0,7.436248264921674,0.00045520559999999996
154.58,376.38,29892.0,3.3453e-05,-1.5817,-0.32255,117.69,26.525,50.988,721.57,-0.022274,92.978,0.10898,liquid,O2,C7782447,oxygen,154.58,50.43,13.6,0.07352941176470588,1.0,7.463414634146341,0.00045496079999999997
154.58,377.74,29908.0,3.3436e-05,-1.584,-0.321,117.67,26.531,50.958,722.44,-0.022375,93.126,0.10912,liquid,O2,C7782447,oxygen,154.58,50.43,13.6,0.07352941176470588,1.0,7.490382708705136,0.0004547296
154.58,379.11,29924.0,3.3418e-05,-1.5863,-0.31944,117.65,26.536,50.929,723.3,-0.022476,93.274,0.10925,liquid,O2,C7782447,oxygen,154.58,50.43,13.6,0.07352941176470588,1.0,7.517549077929804,0.00045448479999999996
154.58,380.47,29939.0,3.3401e-05,-1.5887,-0.31787,117.63,26.542,50.9,724.17,-0.022576,93.422,0.10938,liquid,O2,C7782447,oxygen,154.58,50.43,13.6,0.07352941176470588,1.0,7.5445171524885986,0.0004542536
154.58,381.83,29955.0,3.3383e-05,-1.591,-0.3163,117.61,26.547,50.871,725.03,-0.022675,93.569,0.10951,liquid,O2,C7782447,oxygen,154.58,50.43,13.6,0.07352941176470588,1.0,7.5714852270473925,0.0004540088
154.58,383.2,29970.0,3.3366e-05,-1.5933,-0.31472,117.59,26.552,50.842,725.89,-0.022773,93.716,0.10964,liquid,O2,C7782447,oxygen,154.58,50.43,13.6,0.07352941176470588,1.0,7.59865159627206,0.0004537776
154.58,384.56,29986.0,3.3349e-05,-1.5956,-0.31314,117.57,26.558,50.813,726.75,-0.022871,93.864,0.10977,liquid,O2,C7782447,oxygen,154.58,50.43,13.6,0.07352941176470588,1.0,7.625619670830854,0.0004535464
154.58,385.93,30001.0,3.3332e-05,-1.5979,-0.31155,117.55,26.563,50.785,727.6,-0.022968,94.011,0.1099,liquid,O2,C7782447,oxygen,154.58,50.43,13.6,0.07352941176470588,1.0,7.652786040055522,0.0004533152
154.58,387.3,30017.0,3.3315e-05,-1.6002,-0.30996,117.53,26.568,50.757,728.46,-0.023065,94.158,0.11003,liquid,O2,C7782447,oxygen,154.58,50.43,13.6,0.07352941176470588,1.0,7.67995240928019,0.00045308400000000003
154.58,388.66,30032.0,3.3298e-05,-1.6025,-0.30835,117.52,26.574,50.729,729.31,-0.02316,94.304,0.11016,liquid,O2,C7782447,oxygen,154.58,50.43,13.6,0.07352941176470588,1.0,7.706920483838985,0.00045285279999999995
154.58,390.02,30047.0,3.3281e-05,-1.6048,-0.30675,117.5,26.579,50.701,730.16,-0.023256,94.451,0.11029,liquid,O2,C7782447,oxygen,154.58,50.43,13.6,0.07352941176470588,1.0,7.733888558397779,0.0004526216
154.58,391.39,30063.0,3.3264e-05,-1.6071,-0.30514,117.48,26.584,50.674,731.0,-0.02335,94.597,0.11042,liquid,O2,C7782447,oxygen,154.58,50.43,13.6,0.07352941176470588,1.0,7.761054927622447,0.00045239039999999997