Temperature (K),Pressure (bar),Density (mol/m3),Volume (m3/mol),Internal Energy (kJ/mol),Enthalpy (kJ/mol),Entropy (J/mol*K),Cv (J/mol*K),Cp (J/mol*K),Sound Spd. (m/s),Joule-Thomson (K/bar),Viscosity (uPa*s),Therm. Cond. (W/m*K),Phase,substance,substance_id,substance_name,Tc,Pc,rhoc,Vmc,Tr,Pr,Vmr
241.38,304.18,16674.0,5.9974e-05,0.58121,2.4055,94.672,14.871,40.005,432.21,0.071791,42.635,0.041631,supercritical,Ar,C7440371,argon,150.86,48.9805,13.41,0.07457121551081282,1.6,6.210226518716633,0.00080425134
241.38,305.81,16732.0,5.9764e-05,0.57321,2.4009,94.613,14.875,39.974,433.47,0.070681,42.793,0.041779,supercritical,Ar,C7440371,argon,150.86,48.9805,13.41,0.07457121551081282,1.6,6.2435050683435245,0.0008014352400000001
241.38,307.44,16791.0,5.9557e-05,0.56527,2.3963,94.554,14.879,39.942,434.73,0.069584,42.951,0.041926,supercritical,Ar,C7440371,argon,150.86,48.9805,13.41,0.07457121551081282,1.6,6.276783617970417,0.0007986593700000001
241.38,309.07,16848.0,5.9353e-05,0.55738,2.3918,94.495,14.883,39.91,435.98,0.0685,43.109,0.042073,supercritical,Ar,C7440371,argon,150.86,48.9805,13.41,0.07457121551081282,1.6,6.310062167597309,0.00079592373
241.38,310.7,16906.0,5.9152e-05,0.54954,2.3874,94.437,14.887,39.878,437.24,0.067428,43.266,0.04222,supercritical,Ar,C7440371,argon,150.86,48.9805,13.41,0.07457121551081282,1.6,6.343340717224201,0.00079322832
241.38,312.33,16963.0,5.8953e-05,0.54176,2.383,94.379,14.891,39.845,438.49,0.066369,43.423,0.042366,supercritical,Ar,C7440371,argon,150.86,48.9805,13.41,0.07457121551081282,1.6,6.376619266851094,0.0007905597300000002
241.38,313.96,17019.0,5.8757e-05,0.53403,2.3788,94.321,14.895,39.812,439.74,0.065322,43.58,0.042511,supercritical,Ar,C7440371,argon,150.86,48.9805,13.41,0.07457121551081282,1.6,6.409897816477986,0.0007879313700000001
241.38,315.59,17076.0,5.8563e-05,0.52635,2.3746,94.264,14.899,39.779,440.99,0.064286,43.736,0.042656,supercritical,Ar,C7440371,argon,150.86,48.9805,13.41,0.07457121551081282,1.6,6.443176366104878,0.0007853298300000001
241.38,317.22,17131.0,5.8373e-05,0.51873,2.3704,94.208,14.902,39.746,442.24,0.063263,43.891,0.042801,supercritical,Ar,C7440371,argon,150.86,48.9805,13.41,0.07457121551081282,1.6,6.476454915731772,0.00078278193
241.38,318.85,17187.0,5.8184e-05,0.51116,2.3664,94.151,14.906,39.713,443.49,0.062252,44.047,0.042944,supercritical,Ar,C7440371,argon,150.86,48.9805,13.41,0.07457121551081282,1.6,6.509733465358663,0.0007802474400000001
241.38,320.48,17242.0,5.7998e-05,0.50363,2.3624,94.096,14.91,39.68,444.73,0.061252,44.202,0.043088,supercritical,Ar,C7440371,argon,150.86,48.9805,13.41,0.07457121551081282,1.6,6.543012014985556,0.0007777531800000001
241.38,322.11,17297.0,5.7815e-05,0.49616,2.3584,94.04,14.914,39.646,445.97,0.060264,44.357,0.043231,supercritical,Ar,C7440371,argon,150.86,48.9805,13.41,0.07457121551081282,1.6,6.5762905646124485,0.0007752991500000001
241.38,323.74,17351.0,5.7634e-05,0.48874,2.3546,93.985,14.918,39.613,447.21,0.059287,44.511,0.043373,supercritical,Ar,C7440371,argon,150.86,48.9805,13.41,0.07457121551081282,1.6,6.60956911423934,0.00077287194
241.38,325.37,17405.0,5.7455e-05,0.48137,2.3508,93.931,14.922,39.579,448.45,0.05832,44.665,0.043515,supercritical,Ar,C7440371,argon,150.86,48.9805,13.41,0.07457121551081282,1.6,6.642847663866233,0.0007704715500000001
241.38,327.0,17459.0,5.7278e-05,0.47404,2.347,93.876,14.926,39.545,449.69,0.057365,44.819,0.043656,supercritical,Ar,C7440371,argon,150.86,48.9805,13.41,0.07457121551081282,1.6,6.6761262134931245,0.0007680979800000001
241.38,328.63,17512.0,5.7104e-05,0.46677,2.3434,93.823,14.93,39.511,450.92,0.056421,44.972,0.043797,supercritical,Ar,C7440371,argon,150.86,48.9805,13.41,0.07457121551081282,1.6,6.709404763120017,0.0007657646400000001
241.38,330.26,17565.0,5.6932e-05,0.45954,2.3398,93.769,14.934,39.477,452.15,0.055488,45.125,0.043938,supercritical,Ar,C7440371,argon,150.86,48.9805,13.41,0.07457121551081282,1.6,6.74268331274691,0.0007634581200000001
241.38,331.89,17617.0,5.6762e-05,0.45236,2.3362,93.716,14.938,39.443,453.38,0.054564,45.278,0.044078,supercritical,Ar,C7440371,argon,150.86,48.9805,13.41,0.07457121551081282,1.6,6.775961862373801,0.0007611784200000001
241.38,333.52,17670.0,5.6594e-05,0.44523,2.3328,93.663,14.942,39.409,454.6,0.053652,45.431,0.044217,supercritical,Ar,C7440371,argon,150.86,48.9805,13.41,0.07457121551081282,1.6,6.809240412000694,0.00075892554
241.38,335.15,17722.0,5.6428e-05,0.43815,2.3293,93.611,14.946,39.375,455.83,0.052749,45.583,0.044356,supercritical,Ar,C7440371,argon,150.86,48.9805,13.41,0.07457121551081282,1.6,6.8425189616275865,0.0007566994800000001
241.38,336.78,17773.0,5.6265e-05,0.43111,2.326,93.559,14.95,39.341,457.05,0.051857,45.735,0.044495,supercritical,Ar,C7440371,argon,150.86,48.9805,13.41,0.07457121551081282,1.6,6.875797511254478,0.0007545136500000001
241.38,338.41,17824.0,5.6103e-05,0.42411,2.3227,93.508,14.953,39.307,458.27,0.050974,45.886,0.044633,supercritical,Ar,C7440371,argon,150.86,48.9805,13.41,0.07457121551081282,1.6,6.909076060881372,0.0007523412300000001
241.38,340.04,17875.0,5.5943e-05,0.41717,2.3195,93.456,14.957,39.273,459.48,0.050102,46.038,0.04477,supercritical,Ar,C7440371,argon,150.86,48.9805,13.41,0.07457121551081282,1.6,6.942354610508264,0.0007501956300000001
241.38,341.67,17926.0,5.5785e-05,0.41026,2.3163,93.405,14.961,39.239,460.7,0.049239,46.189,0.044908,supercritical,Ar,C7440371,argon,150.86,48.9805,13.41,0.07457121551081282,1.6,6.975633160135156,0.0007480768500000002
241.38,343.3,17976.0,5.5629e-05,0.4034,2.3132,93.355,14.965,39.204,461.91,0.048385,46.339,0.045044,supercritical,Ar,C7440371,argon,150.86,48.9805,13.41,0.07457121551081282,1.6,7.008911709762049,0.00074598489
241.38,344.93,18026.0,5.5475e-05,0.39659,2.3101,93.305,14.969,39.17,463.12,0.047541,46.49,0.04518,supercritical,Ar,C7440371,argon,150.86,48.9805,13.41,0.07457121551081282,1.6,7.042190259388941,0.00074391975
241.38,346.56,18076.0,5.5323e-05,0.38982,2.3071,93.255,14.973,39.136,464.33,0.046707,46.64,0.045316,supercritical,Ar,C7440371,argon,150.86,48.9805,13.41,0.07457121551081282,1.6,7.075468809015833,0.00074188143
241.38,348.19,18125.0,5.5172e-05,0.38309,2.3041,93.205,14.977,39.102,465.53,0.045881,46.79,0.045452,supercritical,Ar,C7440371,argon,150.86,48.9805,13.41,0.07457121551081282,1.6,7.1087473586427254,0.0007398565200000001
241.38,349.82,18174.0,5.5024e-05,0.3764,2.3012,93.156,14.981,39.068,466.73,0.045065,46.94,0.045586,supercritical,Ar,C7440371,argon,150.86,48.9805,13.41,0.07457121551081282,1.6,7.142025908269617,0.0007378718400000001
241.38,351.45,18223.0,5.4877e-05,0.36976,2.2984,93.107,14.985,39.034,467.93,0.044257,47.089,0.045721,supercritical,Ar,C7440371,argon,150.86,48.9805,13.41,0.07457121551081282,1.6,7.17530445789651,0.0007359005700000002
241.38,353.08,18271.0,5.4731e-05,0.36315,2.2956,93.059,14.989,39.0,469.13,0.043458,47.238,0.045855,supercritical,Ar,C7440371,argon,150.86,48.9805,13.41,0.07457121551081282,1.6,7.208583007523402,0.0007339427100000001
241.38,354.71,18319.0,5.4588e-05,0.35659,2.2929,93.01,14.993,38.966,470.32,0.042668,47.387,0.045989,supercritical,Ar,C7440371,argon,150.86,48.9805,13.41,0.07457121551081282,1.6,7.241861557150294,0.0007320250800000001
241.38,356.34,18367.0,5.4446e-05,0.35007,2.2902,92.962,14.997,38.932,471.51,0.041886,47.536,0.046122,supercritical,Ar,C7440371,argon,150.86,48.9805,13.41,0.07457121551081282,1.6,7.275140106777187,0.00073012086
241.38,357.97,18414.0,5.4305e-05,0.34359,2.2876,92.915,15.001,38.898,472.7,0.041113,47.684,0.046254,supercritical,Ar,C7440371,argon,150.86,48.9805,13.41,0.07457121551081282,1.6,7.30841865640408,0.0007282300500000001
241.38,359.6,18462.0,5.4166e-05,0.33715,2.285,92.868,15.005,38.865,473.89,0.040348,47.832,0.046387,supercritical,Ar,C7440371,argon,150.86,48.9805,13.41,0.07457121551081282,1.6,7.341697206030972,0.0007263660600000001
241.38,361.23,18509.0,5.4029e-05,0.33075,2.2824,92.821,15.009,38.831,475.07,0.039592,47.98,0.046519,supercritical,Ar,C7440371,argon,150.86,48.9805,13.41,0.07457121551081282,1.6,7.374975755657864,0.0007245288900000001
241.38,362.86,18555.0,5.3893e-05,0.32439,2.28,92.774,15.013,38.797,476.25,0.038843,48.128,0.04665,supercritical,Ar,C7440371,argon,150.86,48.9805,13.41,0.07457121551081282,1.6,7.408254305284757,0.00072270513
241.38,364.49,18602.0,5.3759e-05,0.31807,2.2775,92.727,15.017,38.764,477.43,0.038102,48.276,0.046781,supercritical,Ar,C7440371,argon,150.86,48.9805,13.41,0.07457121551081282,1.6,7.441532854911649,0.00072090819
241.38,366.12,18648.0,5.3626e-05,0.31179,2.2751,92.681,15.021,38.73,478.6,0.037369,48.423,0.046912,supercritical,Ar,C7440371,argon,150.86,48.9805,13.41,0.07457121551081282,1.6,7.474811404538541,0.0007191246600000001
241.38,367.75,18693.0,5.3495e-05,0.30554,2.2728,92.635,15.025,38.697,479.78,0.036644,48.57,0.047042,supercritical,Ar,C7440371,argon,150.86,48.9805,13.41,0.07457121551081282,1.6,7.508089954165433,0.0007173679500000001
241.38,369.38,18739.0,5.3365e-05,0.29933,2.2705,92.59,15.029,38.664,480.95,0.035927,48.717,0.047172,supercritical,Ar,C7440371,argon,150.86,48.9805,13.41,0.07457121551081282,1.6,7.5413685037923255,0.0007156246500000001
241.38,371.01,18784.0,5.3236e-05,0.29316,2.2683,92.545,15.033,38.63,482.11,0.035217,48.864,0.047302,supercritical,Ar,C7440371,argon,150.86,48.9805,13.41,0.07457121551081282,1.6,7.574647053419218,0.0007138947600000001
241.38,372.64,18829.0,5.3109e-05,0.28703,2.2661,92.5,15.037,38.597,483.28,0.034515,49.01,0.047431,supercritical,Ar,C7440371,argon,150.86,48.9805,13.41,0.07457121551081282,1.6,7.60792560304611,0.0007121916900000001
241.38,374.27,18874.0,5.2983e-05,0.28093,2.2639,92.455,15.041,38.564,484.44,0.03382,49.156,0.04756,supercritical,Ar,C7440371,argon,150.86,48.9805,13.41,0.07457121551081282,1.6,7.641204152673002,0.00071050203
241.38,375.9,18918.0,5.2859e-05,0.27487,2.2618,92.41,15.045,38.532,485.6,0.033132,49.302,0.047688,supercritical,Ar,C7440371,argon,150.86,48.9805,13.41,0.07457121551081282,1.6,7.674482702299895,0.0007088391900000001
241.38,377.53,18963.0,5.2736e-05,0.26885,2.2598,92.366,15.049,38.499,486.76,0.032451,49.448,0.047816,supercritical,Ar,C7440371,argon,150.86,48.9805,13.41,0.07457121551081282,1.6,7.707761251926787,0.00070718976
241.38,379.16,19006.0,5.2614e-05,0.26286,2.2578,92.322,15.053,38.466,487.91,0.031778,49.594,0.047944,supercritical,Ar,C7440371,argon,150.86,48.9805,13.41,0.07457121551081282,1.6,7.74103980155368,0.0007055537400000001
241.38,380.79,19050.0,5.2493e-05,0.25691,2.2558,92.279,15.057,38.434,489.06,0.031111,49.739,0.048071,supercritical,Ar,C7440371,argon,150.86,48.9805,13.41,0.07457121551081282,1.6,7.774318351180573,0.0007039311300000001
241.38,382.42,19094.0,5.2374e-05,0.25099,2.2539,92.235,15.061,38.401,490.21,0.030451,49.885,0.048198,supercritical,Ar,C7440371,argon,150.86,48.9805,13.41,0.07457121551081282,1.6,7.807596900807464,0.0007023353400000001
241.38,384.05,19137.0,5.2256e-05,0.2451,2.252,92.192,15.065,38.369,491.36,0.029798,50.03,0.048324,supercritical,Ar,C7440371,argon,150.86,48.9805,13.41,0.07457121551081282,1.6,7.840875450434357,0.0007007529600000001
241.38,385.68,19180.0,5.2139e-05,0.23925,2.2501,92.149,15.069,38.337,492.5,0.029152,50.175,0.048451,supercritical,Ar,C7440371,argon,150.86,48.9805,13.41,0.07457121551081282,1.6,7.8741540000612495,0.00069918399
241.38,387.31,19222.0,5.2023e-05,0.23344,2.2483,92.107,15.073,38.305,493.64,0.028512,50.32,0.048576,supercritical,Ar,C7440371,argon,150.86,48.9805,13.41,0.07457121551081282,1.6,7.907432549688141,0.0006976284300000001
241.38,388.94,19265.0,5.1908e-05,0.22766,2.2466,92.064,15.077,38.273,494.78,0.027879,50.464,0.048702,supercritical,Ar,C7440371,argon,150.86,48.9805,13.41,0.07457121551081282,1.6,7.940711099315034,0.00069608628
241.38,390.57,19307.0,5.1795e-05,0.22191,2.2449,92.022,15.081,38.241,495.91,0.027252,50.609,0.048827,supercritical,Ar,C7440371,argon,150.86,48.9805,13.41,0.07457121551081282,1.6,7.9739896489419255,0.00069457095
241.38,392.2,19349.0,5.1683e-05,0.21619,2.2432,91.98,15.085,38.209,497.05,0.026632,50.753,0.048952,supercritical,Ar,C7440371,argon,150.86,48.9805,13.41,0.07457121551081282,1.6,8.007268198568818,0.00069306903
241.38,393.83,19391.0,5.1571e-05,0.2105,2.2415,91.939,15.089,38.178,498.18,0.026017,50.897,0.049076,supercritical,Ar,C7440371,argon,150.86,48.9805,13.41,0.07457121551081282,1.6,8.04054674819571,0.00069156711
241.38,395.46,19432.0,5.1461e-05,0.20485,2.2399,91.897,15.093,38.146,499.3,0.025409,51.041,0.0492,supercritical,Ar,C7440371,argon,150.86,48.9805,13.41,0.07457121551081282,1.6,8.073825297822603,0.0006900920100000001
241.38,397.09,19473.0,5.1352e-05,0.19923,2.2384,91.856,15.097,38.115,500.43,0.024807,51.185,0.049324,supercritical,Ar,C7440371,argon,150.86,48.9805,13.41,0.07457121551081282,1.6,8.107103847449494,0.0006886303200000001
241.38,398.72,19514.0,5.1244e-05,0.19364,2.2369,91.815,15.101,38.084,501.55,0.024211,51.328,0.049448,supercritical,Ar,C7440371,argon,150.86,48.9805,13.41,0.07457121551081282,1.6,8.140382397076388,0.0006871820400000001
241.38,400.35,19555.0,5.1137e-05,0.18809,2.2354,91.774,15.105,38.053,502.67,0.023621,51.472,0.049571,supercritical,Ar,C7440371,argon,150.86,48.9805,13.41,0.07457121551081282,1.6,8.173660946703281,0.0006857471700000001
241.38,401.98,19596.0,5.1032e-05,0.18256,2.2339,91.734,15.109,38.022,503.78,0.023036,51.615,0.049693,supercritical,Ar,C7440371,argon,150.86,48.9805,13.41,0.07457121551081282,1.6,8.206939496330172,0.0006843391200000001
241.38,403.61,19636.0,5.0927e-05,0.17707,2.2325,91.694,15.113,37.991,504.9,0.022458,51.758,0.049816,supercritical,Ar,C7440371,argon,150.86,48.9805,13.41,0.07457121551081282,1.6,8.240218045957064,0.0006829310700000001
241.38,405.24,19676.0,5.0823e-05,0.1716,2.2311,91.653,15.117,37.96,506.01,0.021885,51.901,0.049938,supercritical,Ar,C7440371,argon,150.86,48.9805,13.41,0.07457121551081282,1.6,8.273496595583957,0.0006815364300000001
241.38,406.87,19716.0,5.072e-05,0.16617,2.2298,91.614,15.121,37.93,507.12,0.021318,52.044,0.05006,supercritical,Ar,C7440371,argon,150.86,48.9805,13.41,0.07457121551081282,1.6,8.30677514521085,0.0006801552000000001
241.38,408.5,19756.0,5.0618e-05,0.16076,2.2285,91.574,15.125,37.899,508.22,0.020756,52.186,0.050181,supercritical,Ar,C7440371,argon,150.86,48.9805,13.41,0.07457121551081282,1.6,8.340053694837742,0.0006787873800000001
241.38,410.13,19795.0,5.0517e-05,0.15539,2.2272,91.535,15.129,37.869,509.32,0.020199,52.329,0.050303,supercritical,Ar,C7440371,argon,150.86,48.9805,13.41,0.07457121551081282,1.6,8.373332244464635,0.0006774329700000001
241.38,411.76,19835.0,5.0417e-05,0.15004,2.226,91.495,15.133,37.839,510.42,0.019648,52.471,0.050424,supercritical,Ar,C7440371,argon,150.86,48.9805,13.41,0.07457121551081282,1.6,8.406610794091526,0.0006760919700000001
241.38,413.39,19874.0,5.0318e-05,0.14472,2.2248,91.457,15.137,37.809,511.52,0.019103,52.613,0.050544,supercritical,Ar,C7440371,argon,150.86,48.9805,13.41,0.07457121551081282,1.6,8.439889343718418,0.0006747643800000001
241.38,415.02,19912.0,5.022e-05,0.13944,2.2237,91.418,15.141,37.779,512.62,0.018562,52.755,0.050664,supercritical,Ar,C7440371,argon,150.86,48.9805,13.41,0.07457121551081282,1.6,8.47316789334531,0.0006734502
241.38,416.65,19951.0,5.0123e-05,0.13418,2.2225,91.379,15.146,37.75,513.71,0.018027,52.897,0.050784,supercritical,Ar,C7440371,argon,150.86,48.9805,13.41,0.07457121551081282,1.6,8.506446442972203,0.00067214943
241.38,418.28,19989.0,5.0026e-05,0.12895,2.2214,91.341,15.15,37.72,514.8,0.017497,53.039,0.050904,supercritical,Ar,C7440371,argon,150.86,48.9805,13.41,0.07457121551081282,1.6,8.539724992599096,0.00067084866
241.38,419.91,20028.0,4.9931e-05,0.12374,2.2204,91.303,15.154,37.691,515.89,0.016972,53.18,0.051024,supercritical,Ar,C7440371,argon,150.86,48.9805,13.41,0.07457121551081282,1.6,8.573003542225988,0.00066957471
241.38,421.54,20066.0,4.9836e-05,0.11857,2.2194,91.265,15.158,37.662,516.97,0.016452,53.322,0.051143,supercritical,Ar,C7440371,argon,150.86,48.9805,13.41,0.07457121551081282,1.6,8.606282091852881,0.0006683007600000001
241.38,423.17,20104.0,4.9742e-05,0.11342,2.2184,91.227,15.162,37.632,518.05,0.015937,53.463,0.051262,supercritical,Ar,C7440371,argon,150.86,48.9805,13.41,0.07457121551081282,1.6,8.639560641479774,0.00066704022
241.38,424.8,20141.0,4.9649e-05,0.1083,2.2174,91.19,15.166,37.603,519.13,0.015427,53.604,0.05138,supercritical,Ar,C7440371,argon,150.86,48.9805,13.41,0.07457121551081282,1.6,8.672839191106664,0.00066579309
241.38,426.43,20179.0,4.9557e-05,0.1032,2.2165,91.152,15.17,37.575,520.21,0.014921,53.745,0.051498,supercritical,Ar,C7440371,argon,150.86,48.9805,13.41,0.07457121551081282,1.6,8.706117740733557,0.00066455937
241.38,428.06,20216.0,4.9466e-05,0.098137,2.2156,91.115,15.174,37.546,521.28,0.01442,53.886,0.051616,supercritical,Ar,C7440371,argon,150.86,48.9805,13.41,0.07457121551081282,1.6,8.73939629036045,0.0006633390600000001
241.38,429.69,20253.0,4.9375e-05,0.093096,2.2147,91.078,15.178,37.517,522.35,0.013924,54.027,0.051734,supercritical,Ar,C7440371,argon,150.86,48.9805,13.41,0.07457121551081282,1.6,8.772674839987342,0.0006621187500000001
241.38,431.32,20290.0,4.9286e-05,0.088082,2.2139,91.041,15.182,37.489,523.42,0.013433,54.167,0.051852,supercritical,Ar,C7440371,argon,150.86,48.9805,13.41,0.07457121551081282,1.6,8.805953389614235,0.0006609252600000001
241.38,432.95,20327.0,4.9197e-05,0.083093,2.2131,91.005,15.186,37.461,524.49,0.012946,54.307,0.051969,supercritical,Ar,C7440371,argon,150.86,48.9805,13.41,0.07457121551081282,1.6,8.839231939241126,0.0006597317700000001
241.38,434.58,20363.0,4.9109e-05,0.078131,2.2123,90.968,15.19,37.433,525.55,0.012463,54.448,0.052086,supercritical,Ar,C7440371,argon,150.86,48.9805,13.41,0.07457121551081282,1.6,8.872510488868018,0.0006585516900000001
241.38,436.21,20399.0,4.9021e-05,0.073194,2.2115,90.932,15.195,37.405,526.61,0.011985,54.588,0.052202,supercritical,Ar,C7440371,argon,150.86,48.9805,13.41,0.07457121551081282,1.6,8.90578903849491,0.0006573716100000001
241.38,437.84,20435.0,4.8935e-05,0.068282,2.2108,90.896,15.199,37.377,527.67,0.011512,54.728,0.052319,supercritical,Ar,C7440371,argon,150.86,48.9805,13.41,0.07457121551081282,1.6,8.939067588121803,0.0006562183500000001
241.38,439.47,20471.0,4.8849e-05,0.063395,2.2101,90.86,15.203,37.349,528.73,0.011042,54.868,0.052435,supercritical,Ar,C7440371,argon,150.86,48.9805,13.41,0.07457121551081282,1.6,8.972346137748696,0.0006550650900000001
241.38,441.1,20507.0,4.8763e-05,0.058533,2.2095,90.824,15.207,37.322,529.78,0.010577,55.007,0.052551,supercritical,Ar,C7440371,argon,150.86,48.9805,13.41,0.07457121551081282,1.6,9.005624687375589,0.0006539118300000001
241.38,442.73,20543.0,4.8679e-05,0.053696,2.2089,90.789,15.211,37.294,530.83,0.010117,55.147,0.052666,supercritical,Ar,C7440371,argon,150.86,48.9805,13.41,0.07457121551081282,1.6,9.038903237002481,0.0006527853900000001
241.38,444.36,20578.0,4.8595e-05,0.048883,2.2083,90.754,15.215,37.267,531.88,0.0096599,55.286,0.052782,supercritical,Ar,C7440371,argon,150.86,48.9805,13.41,0.07457121551081282,1.6,9.072181786629374,0.00065165895
241.38,445.99,20613.0,4.8512e-05,0.044095,2.2077,90.718,15.219,37.24,532.93,0.0092074,55.425,0.052897,supercritical,Ar,C7440371,argon,150.86,48.9805,13.41,0.07457121551081282,1.6,9.105460336256266,0.0006505459200000001
241.38,447.62,20649.0,4.843e-05,0.03933,2.2071,90.683,15.223,37.213,533.97,0.0087589,55.565,0.053012,supercritical,Ar,C7440371,argon,150.86,48.9805,13.41,0.07457121551081282,1.6,9.138738885883157,0.0006494463000000001
241.38,449.25,20683.0,4.8348e-05,0.034589,2.2066,90.649,15.227,37.186,535.01,0.0083145,55.703,0.053126,supercritical,Ar,C7440371,argon,150.86,48.9805,13.41,0.07457121551081282,1.6,9.17201743551005,0.00064834668
241.38,450.88,20718.0,4.8267e-05,0.029872,2.2061,90.614,15.232,37.16,536.05,0.0078739,55.842,0.053241,supercritical,Ar,C7440371,argon,150.86,48.9805,13.41,0.07457121551081282,1.6,9.205295985136942,0.00064726047