Temperature (K),Pressure (bar),Density (mol/m3),Volume (m3/mol),Internal Energy (kJ/mol),Enthalpy (kJ/mol),Entropy (J/mol*K),Cv (J/mol*K),Cp (J/mol*K),Sound Spd. (m/s),Joule-Thomson (K/bar),Viscosity (uPa*s),Therm. Cond. (W/m*K),Phase,substance,substance_id,substance_name,Tc,Pc,rhoc,Vmc,Tr,Pr,Vmr
165.95,299.29,26474.0,3.7773e-05,-1.9788,-0.84824,78.582,16.877,43.509,596.71,-0.0091159,84.27,0.071848,supercritical,Ar,C7440371,argon,150.86,48.9805,13.41,0.07457121551081282,1.1,6.110390869835956,0.00050653593
165.95,300.92,26503.0,3.7731e-05,-1.983,-0.84758,78.549,16.882,43.441,598.04,-0.0094722,84.497,0.072002,supercritical,Ar,C7440371,argon,150.86,48.9805,13.41,0.07457121551081282,1.1,6.143669419462848,0.00050597271
165.95,302.55,26533.0,3.769e-05,-1.9872,-0.8469,78.516,16.886,43.373,599.36,-0.0098243,84.724,0.072156,supercritical,Ar,C7440371,argon,150.86,48.9805,13.41,0.07457121551081282,1.1,6.17694796908974,0.0005054229
165.95,304.18,26562.0,3.7648e-05,-1.9914,-0.8462,78.484,16.891,43.306,600.68,-0.010172,84.95,0.072309,supercritical,Ar,C7440371,argon,150.86,48.9805,13.41,0.07457121551081282,1.1,6.210226518716633,0.0005048596800000001
165.95,305.81,26591.0,3.7607e-05,-1.9955,-0.84547,78.451,16.896,43.24,601.99,-0.010516,85.175,0.072461,supercritical,Ar,C7440371,argon,150.86,48.9805,13.41,0.07457121551081282,1.1,6.2435050683435245,0.0005043098700000001
165.95,307.44,26619.0,3.7567e-05,-1.9997,-0.84471,78.419,16.901,43.174,603.29,-0.010857,85.4,0.072613,supercritical,Ar,C7440371,argon,150.86,48.9805,13.41,0.07457121551081282,1.1,6.276783617970417,0.0005037734700000001
165.95,309.07,26648.0,3.7527e-05,-2.0038,-0.84394,78.386,16.906,43.109,604.58,-0.011193,85.623,0.072765,supercritical,Ar,C7440371,argon,150.86,48.9805,13.41,0.07457121551081282,1.1,6.310062167597309,0.0005032370700000001
165.95,310.7,26676.0,3.7487e-05,-2.0079,-0.84314,78.354,16.911,43.046,605.87,-0.011526,85.847,0.072916,supercritical,Ar,C7440371,argon,150.86,48.9805,13.41,0.07457121551081282,1.1,6.343340717224201,0.0005027006700000001
165.95,312.33,26704.0,3.7447e-05,-2.0119,-0.84232,78.322,16.916,42.983,607.16,-0.011854,86.069,0.073067,supercritical,Ar,C7440371,argon,150.86,48.9805,13.41,0.07457121551081282,1.1,6.376619266851094,0.00050216427
165.95,313.96,26732.0,3.7408e-05,-2.0159,-0.84148,78.291,16.921,42.92,608.43,-0.01218,86.291,0.073217,supercritical,Ar,C7440371,argon,150.86,48.9805,13.41,0.07457121551081282,1.1,6.409897816477986,0.00050164128
165.95,315.59,26760.0,3.7369e-05,-2.0199,-0.84062,78.259,16.926,42.859,609.7,-0.012501,86.511,0.073367,supercritical,Ar,C7440371,argon,150.86,48.9805,13.41,0.07457121551081282,1.1,6.443176366104878,0.0005011182900000001
165.95,317.22,26788.0,3.733e-05,-2.0239,-0.83973,78.228,16.931,42.798,610.97,-0.012819,86.732,0.073517,supercritical,Ar,C7440371,argon,150.86,48.9805,13.41,0.07457121551081282,1.1,6.476454915731772,0.0005005953
165.95,318.85,26816.0,3.7292e-05,-2.0279,-0.83883,78.197,16.936,42.737,612.23,-0.013134,86.951,0.073665,supercritical,Ar,C7440371,argon,150.86,48.9805,13.41,0.07457121551081282,1.1,6.509733465358663,0.0005000857200000001
165.95,320.48,26843.0,3.7254e-05,-2.0318,-0.8379,78.166,16.94,42.678,613.48,-0.013445,87.17,0.073814,supercritical,Ar,C7440371,argon,150.86,48.9805,13.41,0.07457121551081282,1.1,6.543012014985556,0.00049957614
165.95,322.11,26870.0,3.7216e-05,-2.0357,-0.83696,78.135,16.945,42.619,614.73,-0.013753,87.389,0.073962,supercritical,Ar,C7440371,argon,150.86,48.9805,13.41,0.07457121551081282,1.1,6.5762905646124485,0.00049906656
165.95,323.74,26897.0,3.7179e-05,-2.0396,-0.83599,78.104,16.95,42.561,615.97,-0.014058,87.606,0.07411,supercritical,Ar,C7440371,argon,150.86,48.9805,13.41,0.07457121551081282,1.1,6.60956911423934,0.00049857039
165.95,325.37,26924.0,3.7141e-05,-2.0435,-0.83501,78.074,16.955,42.503,617.21,-0.014359,87.823,0.074257,supercritical,Ar,C7440371,argon,150.86,48.9805,13.41,0.07457121551081282,1.1,6.642847663866233,0.0004980608100000001
165.95,327.0,26951.0,3.7104e-05,-2.0473,-0.834,78.043,16.961,42.447,618.44,-0.014657,88.04,0.074404,supercritical,Ar,C7440371,argon,150.86,48.9805,13.41,0.07457121551081282,1.1,6.6761262134931245,0.0004975646400000001
165.95,328.63,26978.0,3.7068e-05,-2.0511,-0.83298,78.013,16.966,42.39,619.66,-0.014952,88.255,0.07455,supercritical,Ar,C7440371,argon,150.86,48.9805,13.41,0.07457121551081282,1.1,6.709404763120017,0.00049708188
165.95,330.26,27004.0,3.7031e-05,-2.0549,-0.83194,77.983,16.971,42.335,620.88,-0.015244,88.47,0.074697,supercritical,Ar,C7440371,argon,150.86,48.9805,13.41,0.07457121551081282,1.1,6.74268331274691,0.00049658571
165.95,331.89,27030.0,3.6995e-05,-2.0587,-0.83088,77.953,16.976,42.28,622.1,-0.015533,88.685,0.074842,supercritical,Ar,C7440371,argon,150.86,48.9805,13.41,0.07457121551081282,1.1,6.775961862373801,0.0004961029500000001
165.95,333.52,27057.0,3.696e-05,-2.0625,-0.8298,77.923,16.981,42.225,623.31,-0.015819,88.899,0.074987,supercritical,Ar,C7440371,argon,150.86,48.9805,13.41,0.07457121551081282,1.1,6.809240412000694,0.0004956336
165.95,335.15,27083.0,3.6924e-05,-2.0662,-0.8287,77.893,16.986,42.172,624.51,-0.016102,89.112,0.075132,supercritical,Ar,C7440371,argon,150.86,48.9805,13.41,0.07457121551081282,1.1,6.8425189616275865,0.0004951508400000001
165.95,336.78,27109.0,3.6889e-05,-2.0699,-0.82758,77.864,16.991,42.118,625.71,-0.016382,89.325,0.075277,supercritical,Ar,C7440371,argon,150.86,48.9805,13.41,0.07457121551081282,1.1,6.875797511254478,0.0004946814900000001
165.95,338.41,27134.0,3.6854e-05,-2.0736,-0.82645,77.834,16.996,42.066,626.9,-0.016659,89.537,0.075421,supercritical,Ar,C7440371,argon,150.86,48.9805,13.41,0.07457121551081282,1.1,6.909076060881372,0.00049421214
165.95,340.04,27160.0,3.6819e-05,-2.0773,-0.8253,77.805,17.001,42.014,628.09,-0.016934,89.749,0.075565,supercritical,Ar,C7440371,argon,150.86,48.9805,13.41,0.07457121551081282,1.1,6.942354610508264,0.00049374279
165.95,341.67,27185.0,3.6784e-05,-2.0809,-0.82413,77.776,17.006,41.962,629.28,-0.017206,89.96,0.075708,supercritical,Ar,C7440371,argon,150.86,48.9805,13.41,0.07457121551081282,1.1,6.975633160135156,0.00049327344
165.95,343.3,27211.0,3.675e-05,-2.0846,-0.82294,77.747,17.011,41.911,630.46,-0.017474,90.17,0.075851,supercritical,Ar,C7440371,argon,150.86,48.9805,13.41,0.07457121551081282,1.1,7.008911709762049,0.0004928175000000001
165.95,344.93,27236.0,3.6716e-05,-2.0882,-0.82174,77.718,17.016,41.861,631.63,-0.017741,90.38,0.075993,supercritical,Ar,C7440371,argon,150.86,48.9805,13.41,0.07457121551081282,1.1,7.042190259388941,0.00049236156
165.95,346.56,27261.0,3.6682e-05,-2.0918,-0.82052,77.689,17.021,41.811,632.8,-0.018004,90.589,0.076136,supercritical,Ar,C7440371,argon,150.86,48.9805,13.41,0.07457121551081282,1.1,7.075468809015833,0.0004919056200000001
165.95,348.19,27286.0,3.6649e-05,-2.0954,-0.81929,77.661,17.026,41.761,633.96,-0.018265,90.798,0.076278,supercritical,Ar,C7440371,argon,150.86,48.9805,13.41,0.07457121551081282,1.1,7.1087473586427254,0.0004914630900000001
165.95,349.82,27311.0,3.6615e-05,-2.0989,-0.81804,77.632,17.032,41.712,635.12,-0.018524,91.006,0.076419,supercritical,Ar,C7440371,argon,150.86,48.9805,13.41,0.07457121551081282,1.1,7.142025908269617,0.0004910071500000001
165.95,351.45,27336.0,3.6582e-05,-2.1025,-0.81677,77.604,17.037,41.664,636.27,-0.01878,91.214,0.07656,supercritical,Ar,C7440371,argon,150.86,48.9805,13.41,0.07457121551081282,1.1,7.17530445789651,0.0004905646200000001
165.95,353.08,27360.0,3.6549e-05,-2.106,-0.81549,77.576,17.042,41.616,637.42,-0.019033,91.421,0.076701,supercritical,Ar,C7440371,argon,150.86,48.9805,13.41,0.07457121551081282,1.1,7.208583007523402,0.00049012209
165.95,354.71,27385.0,3.6517e-05,-2.1095,-0.81419,77.548,17.047,41.569,638.57,-0.019284,91.628,0.076841,supercritical,Ar,C7440371,argon,150.86,48.9805,13.41,0.07457121551081282,1.1,7.241861557150294,0.00048969297
165.95,356.34,27409.0,3.6484e-05,-2.113,-0.81287,77.52,17.052,41.522,639.71,-0.019533,91.834,0.076981,supercritical,Ar,C7440371,argon,150.86,48.9805,13.41,0.07457121551081282,1.1,7.275140106777187,0.0004892504400000001
165.95,357.97,27433.0,3.6452e-05,-2.1164,-0.81154,77.492,17.057,41.475,640.85,-0.019779,92.04,0.077121,supercritical,Ar,C7440371,argon,150.86,48.9805,13.41,0.07457121551081282,1.1,7.30841865640408,0.0004888213200000001
165.95,359.6,27457.0,3.642e-05,-2.1199,-0.8102,77.465,17.062,41.429,641.98,-0.020023,92.245,0.077261,supercritical,Ar,C7440371,argon,150.86,48.9805,13.41,0.07457121551081282,1.1,7.341697206030972,0.0004883922000000001
165.95,361.23,27481.0,3.6388e-05,-2.1233,-0.80884,77.437,17.068,41.384,643.1,-0.020264,92.449,0.0774,supercritical,Ar,C7440371,argon,150.86,48.9805,13.41,0.07457121551081282,1.1,7.374975755657864,0.00048796308
165.95,362.86,27505.0,3.6357e-05,-2.1267,-0.80746,77.409,17.073,41.338,644.23,-0.020504,92.654,0.077538,supercritical,Ar,C7440371,argon,150.86,48.9805,13.41,0.07457121551081282,1.1,7.408254305284757,0.00048754737
165.95,364.49,27529.0,3.6325e-05,-2.1301,-0.80608,77.382,17.078,41.294,645.34,-0.020741,92.857,0.077677,supercritical,Ar,C7440371,argon,150.86,48.9805,13.41,0.07457121551081282,1.1,7.441532854911649,0.00048711825000000007
165.95,366.12,27553.0,3.6294e-05,-2.1335,-0.80467,77.355,17.083,41.25,646.46,-0.020975,93.061,0.077815,supercritical,Ar,C7440371,argon,150.86,48.9805,13.41,0.07457121551081282,1.1,7.474811404538541,0.00048670254000000005
165.95,367.75,27576.0,3.6263e-05,-2.1368,-0.80326,77.328,17.088,41.206,647.57,-0.021208,93.263,0.077952,supercritical,Ar,C7440371,argon,150.86,48.9805,13.41,0.07457121551081282,1.1,7.508089954165433,0.00048628683000000004
165.95,369.38,27599.0,3.6233e-05,-2.1402,-0.80182,77.301,17.093,41.162,648.67,-0.021439,93.466,0.07809,supercritical,Ar,C7440371,argon,150.86,48.9805,13.41,0.07457121551081282,1.1,7.5413685037923255,0.00048588453
165.95,371.01,27623.0,3.6202e-05,-2.1435,-0.80038,77.274,17.098,41.119,649.77,-0.021667,93.667,0.078227,supercritical,Ar,C7440371,argon,150.86,48.9805,13.41,0.07457121551081282,1.1,7.574647053419218,0.0004854688200000001
165.95,372.64,27646.0,3.6172e-05,-2.1468,-0.79892,77.247,17.104,41.077,650.87,-0.021893,93.869,0.078364,supercritical,Ar,C7440371,argon,150.86,48.9805,13.41,0.07457121551081282,1.1,7.60792560304611,0.00048506652
165.95,374.27,27669.0,3.6142e-05,-2.1501,-0.79745,77.221,17.109,41.035,651.96,-0.022117,94.07,0.0785,supercritical,Ar,C7440371,argon,150.86,48.9805,13.41,0.07457121551081282,1.1,7.641204152673002,0.00048466422000000004
165.95,375.9,27692.0,3.6112e-05,-2.1534,-0.79596,77.194,17.114,40.993,653.05,-0.02234,94.27,0.078636,supercritical,Ar,C7440371,argon,150.86,48.9805,13.41,0.07457121551081282,1.1,7.674482702299895,0.0004842619200000001
165.95,377.53,27715.0,3.6082e-05,-2.1567,-0.79446,77.168,17.119,40.952,654.14,-0.02256,94.47,0.078772,supercritical,Ar,C7440371,argon,150.86,48.9805,13.41,0.07457121551081282,1.1,7.707761251926787,0.00048385962
165.95,379.16,27738.0,3.6052e-05,-2.1599,-0.79295,77.141,17.124,40.911,655.22,-0.022778,94.67,0.078907,supercritical,Ar,C7440371,argon,150.86,48.9805,13.41,0.07457121551081282,1.1,7.74103980155368,0.00048345732000000004
165.95,380.79,27760.0,3.6023e-05,-2.1631,-0.79142,77.115,17.13,40.87,656.29,-0.022994,94.869,0.079043,supercritical,Ar,C7440371,argon,150.86,48.9805,13.41,0.07457121551081282,1.1,7.774318351180573,0.00048306843000000003
165.95,382.42,27783.0,3.5993e-05,-2.1663,-0.78989,77.089,17.135,40.83,657.37,-0.023208,95.068,0.079178,supercritical,Ar,C7440371,argon,150.86,48.9805,13.41,0.07457121551081282,1.1,7.807596900807464,0.00048266613000000005
165.95,384.05,27805.0,3.5964e-05,-2.1695,-0.78833,77.063,17.14,40.79,658.44,-0.023421,95.266,0.079312,supercritical,Ar,C7440371,argon,150.86,48.9805,13.41,0.07457121551081282,1.1,7.840875450434357,0.0004822772400000001
165.95,385.68,27828.0,3.5936e-05,-2.1727,-0.78677,77.037,17.145,40.751,659.5,-0.023631,95.464,0.079446,supercritical,Ar,C7440371,argon,150.86,48.9805,13.41,0.07457121551081282,1.1,7.8741540000612495,0.0004819017600000001
165.95,387.31,27850.0,3.5907e-05,-2.1759,-0.7852,77.011,17.15,40.711,660.56,-0.02384,95.661,0.07958,supercritical,Ar,C7440371,argon,150.86,48.9805,13.41,0.07457121551081282,1.1,7.907432549688141,0.00048151287000000007
165.95,388.94,27872.0,3.5878e-05,-2.1791,-0.78361,76.986,17.155,40.673,661.62,-0.024047,95.858,0.079714,supercritical,Ar,C7440371,argon,150.86,48.9805,13.41,0.07457121551081282,1.1,7.940711099315034,0.00048112398
165.95,390.57,27894.0,3.585e-05,-2.1822,-0.78201,76.96,17.161,40.634,662.67,-0.024252,96.055,0.079847,supercritical,Ar,C7440371,argon,150.86,48.9805,13.41,0.07457121551081282,1.1,7.9739896489419255,0.00048074850000000003
165.95,392.2,27916.0,3.5822e-05,-2.1853,-0.78039,76.935,17.166,40.596,663.72,-0.024455,96.251,0.07998,supercritical,Ar,C7440371,argon,150.86,48.9805,13.41,0.07457121551081282,1.1,8.007268198568818,0.00048037302
165.95,393.83,27938.0,3.5794e-05,-2.1884,-0.77877,76.909,17.171,40.558,664.77,-0.024657,96.447,0.080113,supercritical,Ar,C7440371,argon,150.86,48.9805,13.41,0.07457121551081282,1.1,8.04054674819571,0.0004799975400000001
165.95,395.46,27960.0,3.5766e-05,-2.1915,-0.77713,76.884,17.176,40.521,665.81,-0.024857,96.642,0.080246,supercritical,Ar,C7440371,argon,150.86,48.9805,13.41,0.07457121551081282,1.1,8.073825297822603,0.0004796220600000001
165.95,397.09,27981.0,3.5738e-05,-2.1946,-0.77549,76.859,17.181,40.484,666.85,-0.025055,96.838,0.080378,supercritical,Ar,C7440371,argon,150.86,48.9805,13.41,0.07457121551081282,1.1,8.107103847449494,0.0004792465800000001
165.95,398.72,28003.0,3.5711e-05,-2.1977,-0.77383,76.834,17.187,40.447,667.88,-0.025251,97.032,0.08051,supercritical,Ar,C7440371,argon,150.86,48.9805,13.41,0.07457121551081282,1.1,8.140382397076388,0.00047888451
165.95,400.35,28024.0,3.5683e-05,-2.2007,-0.77216,76.809,17.192,40.411,668.92,-0.025446,97.227,0.080642,supercritical,Ar,C7440371,argon,150.86,48.9805,13.41,0.07457121551081282,1.1,8.173660946703281,0.00047850903
165.95,401.98,28046.0,3.5656e-05,-2.2038,-0.77048,76.784,17.197,40.375,669.94,-0.025639,97.42,0.080773,supercritical,Ar,C7440371,argon,150.86,48.9805,13.41,0.07457121551081282,1.1,8.206939496330172,0.00047814696000000005
165.95,403.61,28067.0,3.5629e-05,-2.2068,-0.76878,76.759,17.202,40.339,670.97,-0.02583,97.614,0.080904,supercritical,Ar,C7440371,argon,150.86,48.9805,13.41,0.07457121551081282,1.1,8.240218045957064,0.00047778489000000005
165.95,405.24,28088.0,3.5602e-05,-2.2098,-0.76708,76.734,17.207,40.304,671.99,-0.02602,97.807,0.081035,supercritical,Ar,C7440371,argon,150.86,48.9805,13.41,0.07457121551081282,1.1,8.273496595583957,0.00047742282000000005
165.95,406.87,28109.0,3.5575e-05,-2.2128,-0.76536,76.71,17.213,40.268,673.01,-0.026208,98.0,0.081165,supercritical,Ar,C7440371,argon,150.86,48.9805,13.41,0.07457121551081282,1.1,8.30677514521085,0.00047706075
165.95,408.5,28130.0,3.5549e-05,-2.2158,-0.76364,76.685,17.218,40.234,674.02,-0.026395,98.193,0.081296,supercritical,Ar,C7440371,argon,150.86,48.9805,13.41,0.07457121551081282,1.1,8.340053694837742,0.0004767120900000001
165.95,410.13,28151.0,3.5522e-05,-2.2188,-0.7619,76.661,17.223,40.199,675.03,-0.02658,98.385,0.081426,supercritical,Ar,C7440371,argon,150.86,48.9805,13.41,0.07457121551081282,1.1,8.373332244464635,0.0004763500200000001
165.95,411.76,28172.0,3.5496e-05,-2.2217,-0.76016,76.636,17.228,40.165,676.04,-0.026764,98.576,0.081555,supercritical,Ar,C7440371,argon,150.86,48.9805,13.41,0.07457121551081282,1.1,8.406610794091526,0.00047600136000000006
165.95,413.39,28193.0,3.547e-05,-2.2247,-0.7584,76.612,17.233,40.131,677.04,-0.026946,98.768,0.081685,supercritical,Ar,C7440371,argon,150.86,48.9805,13.41,0.07457121551081282,1.1,8.439889343718418,0.0004756527
165.95,415.02,28214.0,3.5444e-05,-2.2276,-0.75663,76.588,17.238,40.097,678.04,-0.027126,98.959,0.081814,supercritical,Ar,C7440371,argon,150.86,48.9805,13.41,0.07457121551081282,1.1,8.47316789334531,0.00047530404000000007
165.95,416.65,28234.0,3.5418e-05,-2.2305,-0.75485,76.564,17.244,40.064,679.04,-0.027306,99.15,0.081943,supercritical,Ar,C7440371,argon,150.86,48.9805,13.41,0.07457121551081282,1.1,8.506446442972203,0.00047495538000000005
165.95,418.28,28255.0,3.5392e-05,-2.2335,-0.75306,76.54,17.249,40.03,680.03,-0.027483,99.34,0.082072,supercritical,Ar,C7440371,argon,150.86,48.9805,13.41,0.07457121551081282,1.1,8.539724992599096,0.0004746067200000001
165.95,419.91,28275.0,3.5367e-05,-2.2363,-0.75127,76.516,17.254,39.998,681.03,-0.027659,99.53,0.0822,supercritical,Ar,C7440371,argon,150.86,48.9805,13.41,0.07457121551081282,1.1,8.573003542225988,0.0004742714700000001
165.95,421.54,28296.0,3.5341e-05,-2.2392,-0.74946,76.492,17.259,39.965,682.01,-0.027834,99.72,0.082328,supercritical,Ar,C7440371,argon,150.86,48.9805,13.41,0.07457121551081282,1.1,8.606282091852881,0.00047392281000000006
165.95,423.17,28316.0,3.5316e-05,-2.2421,-0.74764,76.468,17.264,39.933,683.0,-0.028008,99.909,0.082456,supercritical,Ar,C7440371,argon,150.86,48.9805,13.41,0.07457121551081282,1.1,8.639560641479774,0.00047358756
165.95,424.8,28336.0,3.5291e-05,-2.245,-0.74581,76.445,17.27,39.901,683.98,-0.02818,100.1,0.082584,supercritical,Ar,C7440371,argon,150.86,48.9805,13.41,0.07457121551081282,1.1,8.672839191106664,0.00047325231
165.95,426.43,28356.0,3.5266e-05,-2.2478,-0.74397,76.421,17.275,39.869,684.96,-0.02835,100.29,0.082711,supercritical,Ar,C7440371,argon,150.86,48.9805,13.41,0.07457121551081282,1.1,8.706117740733557,0.00047291706000000003
165.95,428.06,28376.0,3.5241e-05,-2.2506,-0.74213,76.398,17.28,39.837,685.93,-0.02852,100.48,0.082838,supercritical,Ar,C7440371,argon,150.86,48.9805,13.41,0.07457121551081282,1.1,8.73939629036045,0.00047258181
165.95,429.69,28396.0,3.5216e-05,-2.2535,-0.74027,76.374,17.285,39.806,686.9,-0.028688,100.66,0.082965,supercritical,Ar,C7440371,argon,150.86,48.9805,13.41,0.07457121551081282,1.1,8.772674839987342,0.0004722465600000001
165.95,431.32,28416.0,3.5191e-05,-2.2563,-0.7384,76.351,17.29,39.775,687.87,-0.028854,100.85,0.083092,supercritical,Ar,C7440371,argon,150.86,48.9805,13.41,0.07457121551081282,1.1,8.805953389614235,0.0004719113100000001
165.95,432.95,28436.0,3.5167e-05,-2.2591,-0.73653,76.328,17.295,39.744,688.84,-0.02902,101.04,0.083218,supercritical,Ar,C7440371,argon,150.86,48.9805,13.41,0.07457121551081282,1.1,8.839231939241126,0.00047158947000000003
165.95,434.58,28456.0,3.5143e-05,-2.2619,-0.73464,76.304,17.301,39.714,689.8,-0.029184,101.23,0.083345,supercritical,Ar,C7440371,argon,150.86,48.9805,13.41,0.07457121551081282,1.1,8.872510488868018,0.00047126763
165.95,436.21,28475.0,3.5118e-05,-2.2646,-0.73275,76.281,17.306,39.683,690.76,-0.029347,101.41,0.083471,supercritical,Ar,C7440371,argon,150.86,48.9805,13.41,0.07457121551081282,1.1,8.90578903849491,0.00047093238
165.95,437.84,28495.0,3.5094e-05,-2.2674,-0.73085,76.258,17.311,39.653,691.72,-0.029508,101.6,0.083596,supercritical,Ar,C7440371,argon,150.86,48.9805,13.41,0.07457121551081282,1.1,8.939067588121803,0.00047061054000000006
165.95,439.47,28514.0,3.507e-05,-2.2702,-0.72894,76.235,17.316,39.624,692.67,-0.029669,101.79,0.083722,supercritical,Ar,C7440371,argon,150.86,48.9805,13.41,0.07457121551081282,1.1,8.972346137748696,0.00047028870000000004
165.95,441.1,28534.0,3.5046e-05,-2.2729,-0.72701,76.212,17.321,39.594,693.62,-0.029828,101.97,0.083847,supercritical,Ar,C7440371,argon,150.86,48.9805,13.41,0.07457121551081282,1.1,9.005624687375589,0.0004699668600000001
165.95,442.73,28553.0,3.5023e-05,-2.2756,-0.72509,76.19,17.326,39.565,694.57,-0.029985,102.16,0.083972,supercritical,Ar,C7440371,argon,150.86,48.9805,13.41,0.07457121551081282,1.1,9.038903237002481,0.00046965843000000004
165.95,444.36,28572.0,3.4999e-05,-2.2784,-0.72315,76.167,17.331,39.536,695.52,-0.030142,102.34,0.084097,supercritical,Ar,C7440371,argon,150.86,48.9805,13.41,0.07457121551081282,1.1,9.072181786629374,0.0004693365900000001