Temperature (K),Pressure (bar),Density (mol/m3),Volume (m3/mol),Internal Energy (kJ/mol),Enthalpy (kJ/mol),Entropy (J/mol*K),Cv (J/mol*K),Cp (J/mol*K),Sound Spd. (m/s),Joule-Thomson (K/bar),Viscosity (uPa*s),Therm. Cond. (W/m*K),Phase,substance,substance_id,substance_name,Tc,Pc,rhoc,Vmc,Tr,Pr,Vmr
970.5,708.44,10777.0,9.2794e-05,56.036,62.609,107.01,40.111,67.787,735.42,0.15858,44.971,0.18467,supercritical,H2O,C7732185,water,647.0,220.64,17.9,0.0558659217877095,1.5,3.2108411892675854,0.0016610126000000001
970.5,715.79,10904.0,9.1709e-05,55.966,62.531,106.86,40.169,68.054,736.17,0.15726,45.109,0.18609,supercritical,H2O,C7732185,water,647.0,220.64,17.9,0.0558659217877095,1.5,3.244153372008702,0.0016415910999999998
970.5,723.14,11032.0,9.0649e-05,55.897,62.452,106.71,40.227,68.317,736.94,0.15595,45.248,0.18751,supercritical,H2O,C7732185,water,647.0,220.64,17.9,0.0558659217877095,1.5,3.277465554749819,0.0016226171
970.5,730.49,11159.0,8.9613e-05,55.828,62.374,106.56,40.285,68.578,737.73,0.15465,45.388,0.18894,supercritical,H2O,C7732185,water,647.0,220.64,17.9,0.0558659217877095,1.5,3.3107777374909357,0.0016040726999999998
970.5,737.83,11287.0,8.86e-05,55.759,62.296,106.41,40.341,68.836,738.54,0.15334,45.528,0.19037,supercritical,H2O,C7732185,water,647.0,220.64,17.9,0.0558659217877095,1.5,3.3440445975344457,0.0015859399999999999
970.5,745.18,11414.0,8.7609e-05,55.69,62.219,106.27,40.398,69.091,739.38,0.15204,45.668,0.19181,supercritical,H2O,C7732185,water,647.0,220.64,17.9,0.0558659217877095,1.5,3.377356780275562,0.0015682010999999998
970.5,752.53,11542.0,8.664e-05,55.622,62.142,106.12,40.453,69.343,740.24,0.15075,45.81,0.19326,supercritical,H2O,C7732185,water,647.0,220.64,17.9,0.0558659217877095,1.5,3.4106689630166787,0.0015508559999999998
970.5,759.88,11670.0,8.5693e-05,55.554,62.065,105.98,40.508,69.592,741.12,0.14946,45.951,0.19471,supercritical,H2O,C7732185,water,647.0,220.64,17.9,0.0558659217877095,1.5,3.4439811457577956,0.0015339046999999998
970.5,767.23,11797.0,8.4766e-05,55.486,61.989,105.83,40.562,69.838,742.03,0.14817,46.093,0.19617,supercritical,H2O,C7732185,water,647.0,220.64,17.9,0.0558659217877095,1.5,3.4772933284989125,0.0015173113999999998
970.5,774.58,11925.0,8.386e-05,55.418,61.913,105.69,40.615,70.08,742.95,0.14689,46.236,0.19763,supercritical,H2O,C7732185,water,647.0,220.64,17.9,0.0558659217877095,1.5,3.5106055112400294,0.001501094
970.5,781.92,12052.0,8.2973e-05,55.35,61.838,105.55,40.668,70.319,743.9,0.14561,46.379,0.19909,supercritical,H2O,C7732185,water,647.0,220.64,17.9,0.0558659217877095,1.5,3.543872371283539,0.0014852167
970.5,789.27,12180.0,8.2105e-05,55.282,61.763,105.41,40.72,70.555,744.87,0.14434,46.523,0.20056,supercritical,H2O,C7732185,water,647.0,220.64,17.9,0.0558659217877095,1.5,3.577184554024656,0.0014696795
970.5,796.62,12307.0,8.1255e-05,55.215,61.688,105.27,40.772,70.787,745.87,0.14307,46.667,0.20204,supercritical,H2O,C7732185,water,647.0,220.64,17.9,0.0558659217877095,1.5,3.6104967367657728,0.0014544644999999999
970.5,803.97,12434.0,8.0424e-05,55.148,61.614,105.14,40.823,71.016,746.88,0.14181,46.811,0.20352,supercritical,H2O,C7732185,water,647.0,220.64,17.9,0.0558659217877095,1.5,3.6438089195068892,0.0014395896
970.5,811.32,12561.0,7.961e-05,55.081,61.54,105.0,40.873,71.241,747.92,0.14055,46.956,0.205,supercritical,H2O,C7732185,water,647.0,220.64,17.9,0.0558659217877095,1.5,3.677121102248006,0.001425019
970.5,818.66,12688.0,7.8813e-05,55.015,61.467,104.86,40.923,71.463,748.98,0.1393,47.101,0.20649,supercritical,H2O,C7732185,water,647.0,220.64,17.9,0.0558659217877095,1.5,3.7103879622915157,0.0014107527
970.5,826.01,12815.0,7.8032e-05,54.948,61.394,104.73,40.972,71.681,750.06,0.13805,47.247,0.20798,supercritical,H2O,C7732185,water,647.0,220.64,17.9,0.0558659217877095,1.5,3.7437001450326326,0.0013967728
970.5,833.36,12942.0,7.7268e-05,54.882,61.321,104.6,41.02,71.895,751.16,0.13681,47.392,0.20947,supercritical,H2O,C7732185,water,647.0,220.64,17.9,0.0558659217877095,1.5,3.7770123277737495,0.0013830972
970.5,840.71,13069.0,7.6519e-05,54.816,61.249,104.46,41.068,72.106,752.29,0.13558,47.538,0.21096,supercritical,H2O,C7732185,water,647.0,220.64,17.9,0.0558659217877095,1.5,3.8103245105148664,0.0013696901
970.5,848.06,13195.0,7.5786e-05,54.751,61.178,104.33,41.115,72.313,753.44,0.13435,47.685,0.21246,supercritical,H2O,C7732185,water,647.0,220.64,17.9,0.0558659217877095,1.5,3.8436366932559825,0.0013565693999999999
970.5,855.41,13321.0,7.5067e-05,54.685,61.106,104.2,41.161,72.516,754.6,0.13313,47.832,0.21396,supercritical,H2O,C7732185,water,647.0,220.64,17.9,0.0558659217877095,1.5,3.8769488759970994,0.0013436993
970.5,862.75,13447.0,7.4363e-05,54.62,61.036,104.07,41.207,72.715,755.79,0.13191,47.978,0.21546,supercritical,H2O,C7732185,water,647.0,220.64,17.9,0.0558659217877095,1.5,3.9102157360406093,0.0013310977
970.5,870.1,13573.0,7.3674e-05,54.555,60.966,103.94,41.253,72.91,757.0,0.1307,48.126,0.21697,supercritical,H2O,C7732185,water,647.0,220.64,17.9,0.0558659217877095,1.5,3.9435279187817263,0.0013187645999999998
970.5,877.45,13699.0,7.2998e-05,54.491,60.896,103.82,41.297,73.102,758.24,0.1295,48.273,0.21848,supercritical,H2O,C7732185,water,647.0,220.64,17.9,0.0558659217877095,1.5,3.976840101522843,0.0013066641999999998
970.5,884.8,13825.0,7.2335e-05,54.426,60.826,103.69,41.341,73.29,759.49,0.1283,48.421,0.21998,supercritical,H2O,C7732185,water,647.0,220.64,17.9,0.0558659217877095,1.5,4.01015228426396,0.0012947965
970.5,892.15,13950.0,7.1686e-05,54.362,60.758,103.56,41.385,73.473,760.76,0.12711,48.568,0.22149,supercritical,H2O,C7732185,water,647.0,220.64,17.9,0.0558659217877095,1.5,4.043464467005077,0.0012831794
970.5,899.5,14075.0,7.1049e-05,54.298,60.689,103.44,41.427,73.653,762.06,0.12592,48.716,0.223,supercritical,H2O,C7732185,water,647.0,220.64,17.9,0.0558659217877095,1.5,4.0767766497461935,0.0012717771
970.5,906.84,14200.0,7.0425e-05,54.235,60.621,103.32,41.47,73.829,763.37,0.12475,48.864,0.22452,supercritical,H2O,C7732185,water,647.0,220.64,17.9,0.0558659217877095,1.5,4.110043509789703,0.0012606075
970.5,914.19,14324.0,6.9813e-05,54.172,60.554,103.19,41.511,74.001,764.71,0.12357,49.012,0.22603,supercritical,H2O,C7732185,water,647.0,220.64,17.9,0.0558659217877095,1.5,4.14335569253082,0.0012496527
970.5,921.54,14448.0,6.9213e-05,54.109,60.487,103.07,41.552,74.169,766.06,0.12241,49.161,0.22754,supercritical,H2O,C7732185,water,647.0,220.64,17.9,0.0558659217877095,1.5,4.176667875271936,0.0012389127
970.5,928.89,14572.0,6.8624e-05,54.046,60.42,102.95,41.593,74.333,767.44,0.12125,49.309,0.22906,supercritical,H2O,C7732185,water,647.0,220.64,17.9,0.0558659217877095,1.5,4.209980058013053,0.0012283696
970.5,936.24,14696.0,6.8047e-05,53.984,60.354,102.83,41.632,74.493,768.84,0.12011,49.458,0.23057,supercritical,H2O,C7732185,water,647.0,220.64,17.9,0.0558659217877095,1.5,4.24329224075417,0.0012180412999999999
970.5,943.59,14819.0,6.7481e-05,53.921,60.289,102.71,41.672,74.649,770.25,0.11896,49.606,0.23208,supercritical,H2O,C7732185,water,647.0,220.64,17.9,0.0558659217877095,1.5,4.276604423495287,0.0012079099
970.5,950.93,14942.0,6.6925e-05,53.86,60.224,102.59,41.71,74.801,771.69,0.11783,49.755,0.2336,supercritical,H2O,C7732185,water,647.0,220.64,17.9,0.0558659217877095,1.5,4.309871283538796,0.0011979574999999999
970.5,958.28,15065.0,6.638e-05,53.798,60.159,102.48,41.748,74.949,773.15,0.1167,49.903,0.23511,supercritical,H2O,C7732185,water,647.0,220.64,17.9,0.0558659217877095,1.5,4.343183466279913,0.001188202
970.5,965.63,15187.0,6.5845e-05,53.737,60.095,102.36,41.786,75.093,774.62,0.11558,50.052,0.23662,supercritical,H2O,C7732185,water,647.0,220.64,17.9,0.0558659217877095,1.5,4.37649564902103,0.0011786255
970.5,972.98,15309.0,6.5321e-05,53.676,60.032,102.25,41.823,75.233,776.12,0.11447,50.201,0.23813,supercritical,H2O,C7732185,water,647.0,220.64,17.9,0.0558659217877095,1.5,4.409807831762147,0.0011692458999999998
970.5,980.33,15431.0,6.4806e-05,53.616,59.969,102.13,41.859,75.369,777.63,0.11336,50.349,0.23964,supercritical,H2O,C7732185,water,647.0,220.64,17.9,0.0558659217877095,1.5,4.443120014503264,0.0011600274
970.5,987.68,15552.0,6.4301e-05,53.555,59.906,102.02,41.895,75.501,779.16,0.11226,50.498,0.24115,supercritical,H2O,C7732185,water,647.0,220.64,17.9,0.0558659217877095,1.5,4.47643219724438,0.0011509879
970.5,995.02,15673.0,6.3805e-05,53.495,59.844,101.91,41.931,75.63,780.72,0.11117,50.647,0.24266,supercritical,H2O,C7732185,water,647.0,220.64,17.9,0.0558659217877095,1.5,4.50969905728789,0.0011421095
970.5,1002.4,15793.0,6.3318e-05,53.436,59.783,101.79,41.966,75.755,782.29,0.11009,50.795,0.24417,supercritical,H2O,C7732185,water,647.0,220.64,17.9,0.0558659217877095,1.5,4.543147208121828,0.0011333922
970.5,1009.7,15914.0,6.284e-05,53.377,59.722,101.68,42.0,75.875,783.87,0.10902,50.944,0.24567,supercritical,H2O,C7732185,water,647.0,220.64,17.9,0.0558659217877095,1.5,4.576232777374909,0.001124836
970.5,1017.1,16033.0,6.237e-05,53.318,59.661,101.57,42.034,75.992,785.48,0.10795,51.092,0.24718,supercritical,H2O,C7732185,water,647.0,220.64,17.9,0.0558659217877095,1.5,4.609771573604061,0.0011164229999999999
970.5,1024.4,16153.0,6.191e-05,53.259,59.601,101.47,42.067,76.106,787.1,0.10689,51.24,0.24868,supercritical,H2O,C7732185,water,647.0,220.64,17.9,0.0558659217877095,1.5,4.642857142857143,0.0011081889999999999
970.5,1031.8,16271.0,6.1457e-05,53.201,59.542,101.36,42.1,76.215,788.74,0.10584,51.389,0.25018,supercritical,H2O,C7732185,water,647.0,220.64,17.9,0.0558659217877095,1.5,4.676395939086294,0.0011000803
970.5,1039.1,16390.0,6.1013e-05,53.143,59.482,101.25,42.132,76.321,790.4,0.1048,51.537,0.25168,supercritical,H2O,C7732185,water,647.0,220.64,17.9,0.0558659217877095,1.5,4.709481508339376,0.0010921327
970.5,1046.5,16508.0,6.0577e-05,53.085,59.424,101.14,42.164,76.423,792.08,0.10376,51.685,0.25317,supercritical,H2O,C7732185,water,647.0,220.64,17.9,0.0558659217877095,1.5,4.743020304568528,0.0010843283
970.5,1053.8,16626.0,6.0148e-05,53.027,59.366,101.04,42.195,76.521,793.77,0.10274,51.833,0.25466,supercritical,H2O,C7732185,water,647.0,220.64,17.9,0.0558659217877095,1.5,4.77610587382161,0.0010766492
970.5,1061.2,16743.0,5.9727e-05,52.97,59.308,100.93,42.226,76.616,795.48,0.10172,51.98,0.25615,supercritical,H2O,C7732185,water,647.0,220.64,17.9,0.0558659217877095,1.5,4.809644670050762,0.0010691133
970.5,1068.5,16860.0,5.9314e-05,52.914,59.251,100.83,42.256,76.708,797.21,0.10071,52.128,0.25764,supercritical,H2O,C7732185,water,647.0,220.64,17.9,0.0558659217877095,1.5,4.842730239303844,0.0010617206
970.5,1075.9,16976.0,5.8907e-05,52.857,59.195,100.73,42.286,76.796,798.95,0.099707,52.275,0.25912,supercritical,H2O,C7732185,water,647.0,220.64,17.9,0.0558659217877095,1.5,4.876269035532996,0.0010544353
970.5,1083.2,17092.0,5.8508e-05,52.801,59.139,100.62,42.316,76.88,800.7,0.098713,52.422,0.2606,supercritical,H2O,C7732185,water,647.0,220.64,17.9,0.0558659217877095,1.5,4.909354604786078,0.0010472932
970.5,1090.6,17207.0,5.8116e-05,52.745,59.083,100.52,42.344,76.961,802.48,0.097727,52.569,0.26208,supercritical,H2O,C7732185,water,647.0,220.64,17.9,0.0558659217877095,1.5,4.942893401015228,0.0010402763999999998
970.5,1097.9,17322.0,5.773e-05,52.69,59.028,100.42,42.373,77.039,804.26,0.096749,52.716,0.26355,supercritical,H2O,C7732185,water,647.0,220.64,17.9,0.0558659217877095,1.5,4.9759789702683115,0.0010333669999999999
970.5,1105.2,17436.0,5.7352e-05,52.635,58.974,100.32,42.401,77.113,806.07,0.09578,52.863,0.26503,supercritical,H2O,C7732185,water,647.0,220.64,17.9,0.0558659217877095,1.5,5.009064539521392,0.0010266008
970.5,1112.6,17550.0,5.6979e-05,52.58,58.92,100.22,42.429,77.184,807.89,0.094819,53.009,0.26649,supercritical,H2O,C7732185,water,647.0,220.64,17.9,0.0558659217877095,1.5,5.0426033357505435,0.0010199241
970.5,1119.9,17664.0,5.6613e-05,52.526,58.866,100.13,42.456,77.252,809.72,0.093866,53.156,0.26796,supercritical,H2O,C7732185,water,647.0,220.64,17.9,0.0558659217877095,1.5,5.075688905003626,0.0010133727
970.5,1127.3,17777.0,5.6254e-05,52.472,58.813,100.03,42.483,77.317,811.56,0.092921,53.301,0.26942,supercritical,H2O,C7732185,water,647.0,220.64,17.9,0.0558659217877095,1.5,5.109227701232777,0.0010069465999999999
970.5,1134.6,17889.0,5.59e-05,52.418,58.761,99.932,42.509,77.379,813.42,0.091985,53.447,0.27087,supercritical,H2O,C7732185,water,647.0,220.64,17.9,0.0558659217877095,1.5,5.142313270485859,0.0010006099999999999
970.5,1142.0,18001.0,5.5552e-05,52.365,58.709,99.836,42.535,77.438,815.3,0.091057,53.593,0.27232,supercritical,H2O,C7732185,water,647.0,220.64,17.9,0.0558659217877095,1.5,5.175852066715011,0.0009943807999999998
970.5,1149.3,18113.0,5.521e-05,52.311,58.657,99.741,42.561,77.493,817.19,0.090138,53.738,0.27377,supercritical,H2O,C7732185,water,647.0,220.64,17.9,0.0558659217877095,1.5,5.208937635968093,0.000988259
970.5,1156.7,18223.0,5.4874e-05,52.259,58.606,99.647,42.586,77.546,819.09,0.089226,53.883,0.27522,supercritical,H2O,C7732185,water,647.0,220.64,17.9,0.0558659217877095,1.5,5.242476432197245,0.0009822446
970.5,1164.0,18334.0,5.4544e-05,52.206,58.555,99.553,42.611,77.596,821.0,0.088323,54.028,0.27666,supercritical,H2O,C7732185,water,647.0,220.64,17.9,0.0558659217877095,1.5,5.275562001450327,0.0009763375999999999
970.5,1171.4,18444.0,5.4219e-05,52.154,58.505,99.46,42.635,77.643,822.93,0.087428,54.172,0.27809,supercritical,H2O,C7732185,water,647.0,220.64,17.9,0.0558659217877095,1.5,5.309100797679479,0.0009705200999999999
970.5,1178.7,18553.0,5.3899e-05,52.102,58.456,99.368,42.659,77.688,824.86,0.086542,54.316,0.27952,supercritical,H2O,C7732185,water,647.0,220.64,17.9,0.0558659217877095,1.5,5.342186366932561,0.0009647920999999999
970.5,1186.1,18662.0,5.3584e-05,52.051,58.406,99.277,42.683,77.729,826.81,0.085664,54.46,0.28095,supercritical,H2O,C7732185,water,647.0,220.64,17.9,0.0558659217877095,1.5,5.375725163161711,0.0009591535999999999
970.5,1193.4,18771.0,5.3275e-05,52.0,58.358,99.186,42.706,77.768,828.77,0.084794,54.604,0.28237,supercritical,H2O,C7732185,water,647.0,220.64,17.9,0.0558659217877095,1.5,5.4088107324147945,0.0009536225
970.5,1200.8,18879.0,5.297e-05,51.949,58.309,99.096,42.729,77.805,830.75,0.083932,54.747,0.28379,supercritical,H2O,C7732185,water,647.0,220.64,17.9,0.0558659217877095,1.5,5.442349528643945,0.000948163
970.5,1208.1,18986.0,5.2671e-05,51.898,58.262,99.007,42.752,77.839,832.73,0.083078,54.891,0.2852,supercritical,H2O,C7732185,water,647.0,220.64,17.9,0.0558659217877095,1.5,5.4754350978970265,0.0009428108999999999
970.5,1215.5,19093.0,5.2376e-05,51.848,58.214,98.919,42.774,77.87,834.73,0.082233,55.033,0.28661,supercritical,H2O,C7732185,water,647.0,220.64,17.9,0.0558659217877095,1.5,5.5089738941261785,0.0009375303999999999
970.5,1222.8,19199.0,5.2086e-05,51.798,58.168,98.831,42.796,77.9,836.73,0.081396,55.176,0.28802,supercritical,H2O,C7732185,water,647.0,220.64,17.9,0.0558659217877095,1.5,5.54205946337926,0.0009323393999999999
970.5,1230.2,19305.0,5.1801e-05,51.749,58.121,98.744,42.817,77.926,838.75,0.080567,55.318,0.28942,supercritical,H2O,C7732185,water,647.0,220.64,17.9,0.0558659217877095,1.5,5.575598259608412,0.0009272379
970.5,1237.5,19410.0,5.152e-05,51.7,58.075,98.657,42.839,77.951,840.77,0.079746,55.46,0.29081,supercritical,H2O,C7732185,water,647.0,220.64,17.9,0.0558659217877095,1.5,5.608683828861494,0.000922208
970.5,1244.9,19515.0,5.1243e-05,51.651,58.03,98.572,42.86,77.973,842.81,0.078933,55.601,0.2922,supercritical,H2O,C7732185,water,647.0,220.64,17.9,0.0558659217877095,1.5,5.642222625090646,0.0009172496999999999
970.5,1252.2,19619.0,5.0971e-05,51.602,57.985,98.487,42.88,77.993,844.85,0.078128,55.743,0.29359,supercritical,H2O,C7732185,water,647.0,220.64,17.9,0.0558659217877095,1.5,5.675308194343728,0.0009123808999999998
970.5,1259.6,19723.0,5.0703e-05,51.554,57.94,98.402,42.901,78.011,846.9,0.077331,55.884,0.29497,supercritical,H2O,C7732185,water,647.0,220.64,17.9,0.0558659217877095,1.5,5.708846990572879,0.0009075836999999999
970.5,1266.9,19826.0,5.0439e-05,51.506,57.896,98.318,42.921,78.027,848.97,0.076542,56.024,0.29634,supercritical,H2O,C7732185,water,647.0,220.64,17.9,0.0558659217877095,1.5,5.741932559825962,0.0009028581
970.5,1274.3,19928.0,5.018e-05,51.458,57.853,98.235,42.941,78.041,851.04,0.075761,56.165,0.29771,supercritical,H2O,C7732185,water,647.0,220.64,17.9,0.0558659217877095,1.5,5.775471356055113,0.0008982219999999998
970.5,1281.6,20031.0,4.9924e-05,51.411,57.809,98.153,42.96,78.053,853.12,0.074988,56.304,0.29908,supercritical,H2O,C7732185,water,647.0,220.64,17.9,0.0558659217877095,1.5,5.808556925308194,0.0008936395999999999
970.5,1289.0,20132.0,4.9672e-05,51.364,57.767,98.071,42.979,78.063,855.2,0.074223,56.444,0.30044,supercritical,H2O,C7732185,water,647.0,220.64,17.9,0.0558659217877095,1.5,5.842095721537346,0.0008891287999999999
970.5,1296.3,20233.0,4.9424e-05,51.317,57.724,97.99,42.998,78.071,857.3,0.073466,56.583,0.30179,supercritical,H2O,C7732185,water,647.0,220.64,17.9,0.0558659217877095,1.5,5.875181290790428,0.0008846895999999999
970.5,1303.7,20334.0,4.918e-05,51.271,57.682,97.909,43.017,78.078,859.4,0.072716,56.722,0.30315,supercritical,H2O,C7732185,water,647.0,220.64,17.9,0.0558659217877095,1.5,5.90872008701958,0.0008803219999999999
970.5,1311.0,20434.0,4.8939e-05,51.225,57.641,97.829,43.035,78.082,861.51,0.071974,56.861,0.30449,supercritical,H2O,C7732185,water,647.0,220.64,17.9,0.0558659217877095,1.5,5.9418056562726616,0.0008760081
970.5,1318.4,20533.0,4.8702e-05,51.179,57.6,97.75,43.054,78.085,863.62,0.07124,56.999,0.30583,supercritical,H2O,C7732185,water,647.0,220.64,17.9,0.0558659217877095,1.5,5.975344452501814,0.0008717658
970.5,1325.7,20632.0,4.8468e-05,51.134,57.559,97.672,43.072,78.087,865.75,0.070514,57.137,0.30717,supercritical,H2O,C7732185,water,647.0,220.64,17.9,0.0558659217877095,1.5,6.008430021754895,0.0008675771999999999
970.5,1333.0,20730.0,4.8238e-05,51.088,57.519,97.593,43.089,78.086,867.88,0.069795,57.275,0.3085,supercritical,H2O,C7732185,water,647.0,220.64,17.9,0.0558659217877095,1.5,6.041515591007977,0.0008634602
970.5,1340.4,20828.0,4.8012e-05,51.043,57.479,97.516,43.107,78.085,870.01,0.069083,57.412,0.30982,supercritical,H2O,C7732185,water,647.0,220.64,17.9,0.0558659217877095,1.5,6.075054387237129,0.0008594147999999999
970.5,1347.7,20926.0,4.7788e-05,50.999,57.439,97.439,43.124,78.081,872.15,0.068379,57.549,0.31115,supercritical,H2O,C7732185,water,647.0,220.64,17.9,0.0558659217877095,1.5,6.108139956490211,0.0008554051999999999
970.5,1355.1,21022.0,4.7568e-05,50.954,57.4,97.363,43.141,78.077,874.3,0.067683,57.686,0.31246,supercritical,H2O,C7732185,water,647.0,220.64,17.9,0.0558659217877095,1.5,6.141678752719362,0.0008514672
970.5,1362.4,21119.0,4.7351e-05,50.91,57.362,97.287,43.157,78.071,876.45,0.066993,57.822,0.31377,supercritical,H2O,C7732185,water,647.0,220.64,17.9,0.0558659217877095,1.5,6.174764321972445,0.0008475828999999999
970.5,1369.8,21215.0,4.7137e-05,50.867,57.324,97.212,43.174,78.063,878.61,0.066312,57.958,0.31508,supercritical,H2O,C7732185,water,647.0,220.64,17.9,0.0558659217877095,1.5,6.208303118201596,0.0008437522999999999
970.5,1377.1,21310.0,4.6927e-05,50.823,57.286,97.137,43.19,78.054,880.77,0.065637,58.094,0.31638,supercritical,H2O,C7732185,water,647.0,220.64,17.9,0.0558659217877095,1.5,6.241388687454677,0.0008399932999999999
970.5,1384.5,21405.0,4.6719e-05,50.78,57.248,97.063,43.206,78.044,882.93,0.064969,58.229,0.31767,supercritical,H2O,C7732185,water,647.0,220.64,17.9,0.0558659217877095,1.5,6.274927483683829,0.0008362700999999999
970.5,1391.8,21499.0,4.6514e-05,50.737,57.211,96.99,43.222,78.033,885.1,0.064309,58.364,0.31897,supercritical,H2O,C7732185,water,647.0,220.64,17.9,0.0558659217877095,1.5,6.308013052936911,0.0008326006
970.5,1399.2,21593.0,4.6312e-05,50.695,57.175,96.917,43.238,78.02,887.28,0.063656,58.499,0.32025,supercritical,H2O,C7732185,water,647.0,220.64,17.9,0.0558659217877095,1.5,6.341551849166063,0.0008289847999999999