Temperature (K),Pressure (bar),Density (mol/m3),Volume (m3/mol),Internal Energy (kJ/mol),Enthalpy (kJ/mol),Entropy (J/mol*K),Cv (J/mol*K),Cp (J/mol*K),Sound Spd. (m/s),Joule-Thomson (K/bar),Viscosity (uPa*s),Therm. Cond. (W/m*K),Phase,substance,substance_id,substance_name,Tc,Pc,rhoc,Vmc,Tr,Pr,Vmr
1358.7,1494.7,13073.0,7.6492e-05,70.604,82.038,118.14,41.269,57.66,986.46,0.04408,,,supercritical,H2O,C7732185,water,647.0,220.64,17.9,0.0558659217877095,2.1,6.774383611312546,0.0013692067999999998
1358.7,1502.1,13132.0,7.6151e-05,70.581,82.019,118.09,41.283,57.699,987.42,0.043845,,,supercritical,H2O,C7732185,water,647.0,220.64,17.9,0.0558659217877095,2.1,6.807922407541697,0.0013631028999999998
1358.7,1509.4,13190.0,7.5813e-05,70.557,82.0,118.03,41.297,57.738,988.37,0.04361,,,supercritical,H2O,C7732185,water,647.0,220.64,17.9,0.0558659217877095,2.1,6.84100797679478,0.0013570526999999999
1358.7,1516.8,13249.0,7.548e-05,70.533,81.982,117.98,41.311,57.776,989.33,0.043376,,,supercritical,H2O,C7732185,water,647.0,220.64,17.9,0.0558659217877095,2.1,6.874546773023931,0.001351092
1358.7,1524.1,13307.0,7.5149e-05,70.51,81.964,117.92,41.325,57.814,990.29,0.043142,,,supercritical,H2O,C7732185,water,647.0,220.64,17.9,0.0558659217877095,2.1,6.9076323422770125,0.0013451670999999998
1358.7,1531.5,13365.0,7.4822e-05,70.487,81.945,117.87,41.339,57.851,991.26,0.04291,,,supercritical,H2O,C7732185,water,647.0,220.64,17.9,0.0558659217877095,2.1,6.9411711385061645,0.0013393137999999998
1358.7,1538.8,13423.0,7.4499e-05,70.463,81.927,117.81,41.353,57.889,992.23,0.042678,,,supercritical,H2O,C7732185,water,647.0,220.64,17.9,0.0558659217877095,2.1,6.974256707759246,0.0013335321
1358.7,1546.1,13481.0,7.4179e-05,70.44,81.909,117.76,41.367,57.926,993.2,0.042447,,,supercritical,H2O,C7732185,water,647.0,220.64,17.9,0.0558659217877095,2.1,7.007342277012328,0.0013278040999999997
1358.7,1553.5,13539.0,7.3862e-05,70.417,81.891,117.71,41.381,57.963,994.17,0.042217,,,supercritical,H2O,C7732185,water,647.0,220.64,17.9,0.0558659217877095,2.1,7.04088107324148,0.0013221298
1358.7,1560.8,13597.0,7.3548e-05,70.393,81.873,117.65,41.395,58.0,995.15,0.041987,,,supercritical,H2O,C7732185,water,647.0,220.64,17.9,0.0558659217877095,2.1,7.073966642494561,0.0013165091999999998
1358.7,1568.2,13654.0,7.3237e-05,70.37,81.855,117.6,41.409,58.036,996.13,0.041758,,,supercritical,H2O,C7732185,water,647.0,220.64,17.9,0.0558659217877095,2.1,7.107505438723713,0.0013109423
1358.7,1575.5,13712.0,7.293e-05,70.347,81.837,117.55,41.422,58.073,997.11,0.04153,,,supercritical,H2O,C7732185,water,647.0,220.64,17.9,0.0558659217877095,2.1,7.140591007976795,0.0013054469999999997
1358.7,1582.9,13769.0,7.2625e-05,70.324,81.82,117.5,41.436,58.109,998.09,0.041303,,,supercritical,H2O,C7732185,water,647.0,220.64,17.9,0.0558659217877095,2.1,7.174129804205947,0.0012999875
1358.7,1590.2,13827.0,7.2324e-05,70.301,81.802,117.44,41.45,58.145,999.08,0.041076,,,supercritical,H2O,C7732185,water,647.0,220.64,17.9,0.0558659217877095,2.1,7.207215373459029,0.0012945995999999998
1358.7,1597.6,13884.0,7.2026e-05,70.278,81.785,117.39,41.463,58.18,1000.1,0.04085,,,supercritical,H2O,C7732185,water,647.0,220.64,17.9,0.0558659217877095,2.1,7.24075416968818,0.0012892654
1358.7,1604.9,13941.0,7.173e-05,70.255,81.767,117.34,41.477,58.215,1001.1,0.040625,,,supercritical,H2O,C7732185,water,647.0,220.64,17.9,0.0558659217877095,2.1,7.273839738941263,0.001283967
1358.7,1612.3,13998.0,7.1438e-05,70.232,81.75,117.29,41.49,58.251,1002.1,0.040401,,,supercritical,H2O,C7732185,water,647.0,220.64,17.9,0.0558659217877095,2.1,7.307378535170414,0.0012787402
1358.7,1619.6,14055.0,7.1148e-05,70.209,81.733,117.24,41.504,58.285,1003.1,0.040177,,,supercritical,H2O,C7732185,water,647.0,220.64,17.9,0.0558659217877095,2.1,7.3404641044234955,0.0012735492
1358.7,1627.0,14112.0,7.0861e-05,70.186,81.715,117.19,41.517,58.32,1004.1,0.039955,,,supercritical,H2O,C7732185,water,647.0,220.64,17.9,0.0558659217877095,2.1,7.3740029006526475,0.0012684119
1358.7,1634.3,14169.0,7.0577e-05,70.164,81.698,117.14,41.53,58.354,1005.1,0.039732,,,supercritical,H2O,C7732185,water,647.0,220.64,17.9,0.0558659217877095,2.1,7.407088469905729,0.0012633282999999999
1358.7,1641.7,14226.0,7.0296e-05,70.141,81.681,117.09,41.544,58.389,1006.1,0.039511,,,supercritical,H2O,C7732185,water,647.0,220.64,17.9,0.0558659217877095,2.1,7.440627266134881,0.0012582984
1358.7,1649.0,14282.0,7.0018e-05,70.118,81.664,117.04,41.557,58.422,1007.1,0.03929,,,supercritical,H2O,C7732185,water,647.0,220.64,17.9,0.0558659217877095,2.1,7.473712835387963,0.0012533222
1358.7,1656.4,14339.0,6.9742e-05,70.096,81.648,116.99,41.57,58.456,1008.1,0.03907,,,supercritical,H2O,C7732185,water,647.0,220.64,17.9,0.0558659217877095,2.1,7.507251631617114,0.0012483817999999999
1358.7,1663.7,14395.0,6.9469e-05,70.073,81.631,116.94,41.583,58.49,1009.1,0.038851,,,supercritical,H2O,C7732185,water,647.0,220.64,17.9,0.0558659217877095,2.1,7.540337200870196,0.0012434950999999999
1358.7,1671.1,14451.0,6.9198e-05,70.051,81.614,116.89,41.597,58.523,1010.1,0.038633,,,supercritical,H2O,C7732185,water,647.0,220.64,17.9,0.0558659217877095,2.1,7.573875997099347,0.0012386442
1358.7,1678.4,14507.0,6.893e-05,70.028,81.598,116.84,41.61,58.556,1011.1,0.038415,,,supercritical,H2O,C7732185,water,647.0,220.64,17.9,0.0558659217877095,2.1,7.60696156635243,0.001233847
1358.7,1685.8,14564.0,6.8664e-05,70.006,81.581,116.79,41.623,58.589,1012.2,0.038198,,,supercritical,H2O,C7732185,water,647.0,220.64,17.9,0.0558659217877095,2.1,7.640500362581581,0.0012290856
1358.7,1693.1,14620.0,6.8401e-05,69.984,81.565,116.74,41.636,58.621,1013.2,0.037982,,,supercritical,H2O,C7732185,water,647.0,220.64,17.9,0.0558659217877095,2.1,7.673585931834663,0.0012243778999999999
1358.7,1700.5,14675.0,6.8141e-05,69.961,81.548,116.69,41.649,58.653,1014.2,0.037766,,,supercritical,H2O,C7732185,water,647.0,220.64,17.9,0.0558659217877095,2.1,7.707124728063815,0.0012197239
1358.7,1707.8,14731.0,6.7883e-05,69.939,81.532,116.64,41.662,58.685,1015.2,0.037552,,,supercritical,H2O,C7732185,water,647.0,220.64,17.9,0.0558659217877095,2.1,7.740210297316897,0.0012151057
1358.7,1715.2,14787.0,6.7627e-05,69.917,81.516,116.59,41.674,58.717,1016.3,0.037338,,,supercritical,H2O,C7732185,water,647.0,220.64,17.9,0.0558659217877095,2.1,7.773749093546049,0.0012105233
1358.7,1722.5,14843.0,6.7374e-05,69.895,81.5,116.54,41.687,58.749,1017.3,0.037124,,,supercritical,H2O,C7732185,water,647.0,220.64,17.9,0.0558659217877095,2.1,7.8068346627991305,0.0012059946
1358.7,1729.9,14898.0,6.7123e-05,69.873,81.484,116.49,41.7,58.78,1018.4,0.036912,,,supercritical,H2O,C7732185,water,647.0,220.64,17.9,0.0558659217877095,2.1,7.8403734590282825,0.0012015017
1358.7,1737.2,14953.0,6.6874e-05,69.851,81.468,116.45,41.713,58.811,1019.4,0.0367,,,supercritical,H2O,C7732185,water,647.0,220.64,17.9,0.0558659217877095,2.1,7.873459028281364,0.0011970446
1358.7,1744.6,15009.0,6.6628e-05,69.829,81.452,116.4,41.725,58.842,1020.4,0.036489,,,supercritical,H2O,C7732185,water,647.0,220.64,17.9,0.0558659217877095,2.1,7.906997824510515,0.0011926412
1358.7,1751.9,15064.0,6.6384e-05,69.807,81.437,116.35,41.738,58.873,1021.5,0.036278,,,supercritical,H2O,C7732185,water,647.0,220.64,17.9,0.0558659217877095,2.1,7.940083393763597,0.0011882735999999999
1358.7,1759.3,15119.0,6.6142e-05,69.785,81.421,116.3,41.751,58.904,1022.5,0.036069,,,supercritical,H2O,C7732185,water,647.0,220.64,17.9,0.0558659217877095,2.1,7.973622189992748,0.0011839418
1358.7,1766.6,15174.0,6.5902e-05,69.763,81.405,116.26,41.763,58.934,1023.6,0.03586,,,supercritical,H2O,C7732185,water,647.0,220.64,17.9,0.0558659217877095,2.1,8.006707759245831,0.0011796457999999998
1358.7,1773.9,15229.0,6.5665e-05,69.741,81.39,116.21,41.776,58.964,1024.6,0.035652,,,supercritical,H2O,C7732185,water,647.0,220.64,17.9,0.0558659217877095,2.1,8.039793328498913,0.0011754035
1358.7,1781.3,15284.0,6.5429e-05,69.72,81.374,116.16,41.788,58.994,1025.7,0.035444,,,supercritical,H2O,C7732185,water,647.0,220.64,17.9,0.0558659217877095,2.1,8.073332124728065,0.0011711790999999999
1358.7,1788.6,15338.0,6.5196e-05,69.698,81.359,116.12,41.801,59.023,1026.7,0.035237,,,supercritical,H2O,C7732185,water,647.0,220.64,17.9,0.0558659217877095,2.1,8.106417693981145,0.0011670084
1358.7,1796.0,15393.0,6.4965e-05,69.676,81.344,116.07,41.813,59.053,1027.8,0.035031,,,supercritical,H2O,C7732185,water,647.0,220.64,17.9,0.0558659217877095,2.1,8.139956490210297,0.0011628735
1358.7,1803.3,15447.0,6.4736e-05,69.655,81.329,116.02,41.826,59.082,1028.9,0.034826,,,supercritical,H2O,C7732185,water,647.0,220.64,17.9,0.0558659217877095,2.1,8.173042059463379,0.0011587744
1358.7,1810.7,15502.0,6.4509e-05,69.633,81.314,115.98,41.838,59.111,1029.9,0.034622,,,supercritical,H2O,C7732185,water,647.0,220.64,17.9,0.0558659217877095,2.1,8.20658085569253,0.0011547111
1358.7,1818.0,15556.0,6.4283e-05,69.612,81.299,115.93,41.85,59.14,1031.0,0.034418,,,supercritical,H2O,C7732185,water,647.0,220.64,17.9,0.0558659217877095,2.1,8.239666424945613,0.0011506656999999997
1358.7,1825.4,15610.0,6.406e-05,69.59,81.284,115.89,41.863,59.168,1032.1,0.034215,,,supercritical,H2O,C7732185,water,647.0,220.64,17.9,0.0558659217877095,2.1,8.273205221174765,0.001146674
1358.7,1832.7,15664.0,6.3839e-05,69.569,81.269,115.84,41.875,59.196,1033.1,0.034012,,,supercritical,H2O,C7732185,water,647.0,220.64,17.9,0.0558659217877095,2.1,8.306290790427846,0.0011427180999999998
1358.7,1840.1,15718.0,6.362e-05,69.547,81.254,115.8,41.887,59.225,1034.2,0.033811,,,supercritical,H2O,C7732185,water,647.0,220.64,17.9,0.0558659217877095,2.1,8.339829586656998,0.001138798
1358.7,1847.4,15772.0,6.3403e-05,69.526,81.239,115.75,41.899,59.252,1035.3,0.03361,,,supercritical,H2O,C7732185,water,647.0,220.64,17.9,0.0558659217877095,2.1,8.37291515591008,0.0011349137
1358.7,1854.8,15826.0,6.3187e-05,69.505,81.225,115.71,41.911,59.28,1036.4,0.033409,,,supercritical,H2O,C7732185,water,647.0,220.64,17.9,0.0558659217877095,2.1,8.406453952139232,0.0011310473
1358.7,1862.1,15880.0,6.2974e-05,69.484,81.21,115.66,41.923,59.308,1037.4,0.03321,,,supercritical,H2O,C7732185,water,647.0,220.64,17.9,0.0558659217877095,2.1,8.439539521392314,0.0011272346
1358.7,1869.5,15933.0,6.2762e-05,69.463,81.196,115.62,41.935,59.335,1038.5,0.033011,,,supercritical,H2O,C7732185,water,647.0,220.64,17.9,0.0558659217877095,2.1,8.473078317621466,0.0011234398
1358.7,1876.8,15987.0,6.2552e-05,69.442,81.182,115.57,41.947,59.362,1039.6,0.032813,,,supercritical,H2O,C7732185,water,647.0,220.64,17.9,0.0558659217877095,2.1,8.506163886874548,0.0011196808
1358.7,1884.2,16040.0,6.2344e-05,69.421,81.167,115.53,41.959,59.389,1040.7,0.032616,,,supercritical,H2O,C7732185,water,647.0,220.64,17.9,0.0558659217877095,2.1,8.5397026831037,0.0011159575999999999
1358.7,1891.5,16093.0,6.2138e-05,69.4,81.153,115.48,41.971,59.415,1041.8,0.032419,,,supercritical,H2O,C7732185,water,647.0,220.64,17.9,0.0558659217877095,2.1,8.57278825235678,0.0011122702
1358.7,1898.9,16146.0,6.1933e-05,69.379,81.139,115.44,41.983,59.442,1042.9,0.032223,,,supercritical,H2O,C7732185,water,647.0,220.64,17.9,0.0558659217877095,2.1,8.606327048585932,0.0011086007
1358.7,1906.2,16199.0,6.173e-05,69.358,81.125,115.4,41.995,59.468,1044.0,0.032028,,,supercritical,H2O,C7732185,water,647.0,220.64,17.9,0.0558659217877095,2.1,8.639412617839014,0.0011049669999999999
1358.7,1913.6,16252.0,6.1529e-05,69.337,81.111,115.35,42.007,59.494,1045.0,0.031833,,,supercritical,H2O,C7732185,water,647.0,220.64,17.9,0.0558659217877095,2.1,8.672951414068166,0.0011013690999999999
1358.7,1920.9,16305.0,6.133e-05,69.316,81.097,115.31,42.018,59.52,1046.1,0.03164,,,supercritical,H2O,C7732185,water,647.0,220.64,17.9,0.0558659217877095,2.1,8.706036983321248,0.001097807
1358.7,1928.3,16358.0,6.1132e-05,69.295,81.083,115.27,42.03,59.545,1047.2,0.031447,,,supercritical,H2O,C7732185,water,647.0,220.64,17.9,0.0558659217877095,2.1,8.7395757795504,0.0010942628
1358.7,1935.6,16411.0,6.0936e-05,69.275,81.07,115.22,42.042,59.571,1048.3,0.031254,,,supercritical,H2O,C7732185,water,647.0,220.64,17.9,0.0558659217877095,2.1,8.772661348803481,0.0010907544
1358.7,1943.0,16463.0,6.0742e-05,69.254,81.056,115.18,42.053,59.596,1049.4,0.031063,,,supercritical,H2O,C7732185,water,647.0,220.64,17.9,0.0558659217877095,2.1,8.806200145032633,0.0010872818
1358.7,1950.3,16516.0,6.0549e-05,69.233,81.042,115.14,42.065,59.621,1050.6,0.030872,,,supercritical,H2O,C7732185,water,647.0,220.64,17.9,0.0558659217877095,2.1,8.839285714285715,0.0010838271
1358.7,1957.7,16568.0,6.0358e-05,69.213,81.029,115.09,42.077,59.646,1051.7,0.030681,,,supercritical,H2O,C7732185,water,647.0,220.64,17.9,0.0558659217877095,2.1,8.872824510514867,0.0010804082
1358.7,1965.0,16620.0,6.0168e-05,69.192,81.015,115.05,42.088,59.67,1052.8,0.030492,,,supercritical,H2O,C7732185,water,647.0,220.64,17.9,0.0558659217877095,2.1,8.90591007976795,0.0010770072
1358.7,1972.4,16672.0,5.998e-05,69.172,81.002,115.01,42.1,59.695,1053.9,0.030303,,,supercritical,H2O,C7732185,water,647.0,220.64,17.9,0.0558659217877095,2.1,8.939448875997101,0.0010736419999999999
1358.7,1979.7,16724.0,5.9793e-05,69.152,80.989,114.97,42.111,59.719,1055.0,0.030115,,,supercritical,H2O,C7732185,water,647.0,220.64,17.9,0.0558659217877095,2.1,8.972534445250181,0.0010702946999999999
1358.7,1987.1,16776.0,5.9608e-05,69.131,80.976,114.92,42.123,59.743,1056.1,0.029928,,,supercritical,H2O,C7732185,water,647.0,220.64,17.9,0.0558659217877095,2.1,9.006073241479333,0.0010669832
1358.7,1994.4,16828.0,5.9425e-05,69.111,80.963,114.88,42.134,59.767,1057.2,0.029741,,,supercritical,H2O,C7732185,water,647.0,220.64,17.9,0.0558659217877095,2.1,9.039158810732415,0.0010637074999999998
1358.7,2001.7,16880.0,5.9243e-05,69.091,80.95,114.84,42.145,59.79,1058.3,0.029555,,,supercritical,H2O,C7732185,water,647.0,220.64,17.9,0.0558659217877095,2.1,9.072244379985497,0.0010604497
1358.7,2009.1,16931.0,5.9062e-05,69.071,80.937,114.8,42.157,59.814,1059.5,0.02937,,,supercritical,H2O,C7732185,water,647.0,220.64,17.9,0.0558659217877095,2.1,9.105783176214649,0.0010572098
1358.7,2016.4,16983.0,5.8883e-05,69.05,80.924,114.76,42.168,59.837,1060.6,0.029185,,,supercritical,H2O,C7732185,water,647.0,220.64,17.9,0.0558659217877095,2.1,9.13886874546773,0.0010540056999999998
1358.7,2023.8,17034.0,5.8705e-05,69.03,80.911,114.72,42.179,59.86,1061.7,0.029002,,,supercritical,H2O,C7732185,water,647.0,220.64,17.9,0.0558659217877095,2.1,9.172407541696883,0.0010508194999999999
1358.7,2031.1,17086.0,5.8529e-05,69.01,80.898,114.68,42.19,59.883,1062.8,0.028818,,,supercritical,H2O,C7732185,water,647.0,220.64,17.9,0.0558659217877095,2.1,9.205493110949964,0.0010476691
1358.7,2038.5,17137.0,5.8354e-05,68.99,80.886,114.64,42.202,59.906,1063.9,0.028636,,,supercritical,H2O,C7732185,water,647.0,220.64,17.9,0.0558659217877095,2.1,9.239031907179116,0.0010445366
1358.7,2045.8,17188.0,5.818e-05,68.97,80.873,114.59,42.213,59.928,1065.1,0.028454,,,supercritical,H2O,C7732185,water,647.0,220.64,17.9,0.0558659217877095,2.1,9.272117476432198,0.001041422
1358.7,2053.2,17239.0,5.8008e-05,68.95,80.861,114.55,42.224,59.95,1066.2,0.028273,,,supercritical,H2O,C7732185,water,647.0,220.64,17.9,0.0558659217877095,2.1,9.305656272661349,0.0010383431999999998
1358.7,2060.5,17290.0,5.7838e-05,68.93,80.848,114.51,42.235,59.973,1067.3,0.028093,,,supercritical,H2O,C7732185,water,647.0,220.64,17.9,0.0558659217877095,2.1,9.338741841914432,0.0010353002
1358.7,2067.9,17341.0,5.7668e-05,68.911,80.836,114.47,42.246,59.995,1068.5,0.027914,,,supercritical,H2O,C7732185,water,647.0,220.64,17.9,0.0558659217877095,2.1,9.372280638143584,0.0010322571999999998
1358.7,2075.2,17391.0,5.75e-05,68.891,80.823,114.43,42.257,60.016,1069.6,0.027735,,,supercritical,H2O,C7732185,water,647.0,220.64,17.9,0.0558659217877095,2.1,9.405366207396664,0.00102925
1358.7,2082.6,17442.0,5.7333e-05,68.871,80.811,114.39,42.268,60.038,1070.7,0.027557,,,supercritical,H2O,C7732185,water,647.0,220.64,17.9,0.0558659217877095,2.1,9.438905003625816,0.0010262607
1358.7,2089.9,17492.0,5.7168e-05,68.852,80.799,114.35,42.279,60.059,1071.9,0.027379,,,supercritical,H2O,C7732185,water,647.0,220.64,17.9,0.0558659217877095,2.1,9.471990572878898,0.0010233071999999998
1358.7,2097.3,17543.0,5.7004e-05,68.832,80.787,114.31,42.29,60.081,1073.0,0.027202,,,supercritical,H2O,C7732185,water,647.0,220.64,17.9,0.0558659217877095,2.1,9.50552936910805,0.0010203716
1358.7,2104.6,17593.0,5.6841e-05,68.812,80.775,114.27,42.301,60.102,1074.2,0.027026,,,supercritical,H2O,C7732185,water,647.0,220.64,17.9,0.0558659217877095,2.1,9.538614938361132,0.0010174538999999999
1358.7,2112.0,17643.0,5.6679e-05,68.793,80.763,114.23,42.312,60.123,1075.3,0.026851,,,supercritical,H2O,C7732185,water,647.0,220.64,17.9,0.0558659217877095,2.1,9.572153734590284,0.0010145540999999998
1358.7,2119.3,17693.0,5.6519e-05,68.773,80.751,114.19,42.322,60.143,1076.4,0.026676,,,supercritical,H2O,C7732185,water,647.0,220.64,17.9,0.0558659217877095,2.1,9.605239303843366,0.0010116901
1358.7,2126.7,17743.0,5.636e-05,68.754,80.74,114.16,42.333,60.164,1077.6,0.026502,,,supercritical,H2O,C7732185,water,647.0,220.64,17.9,0.0558659217877095,2.1,9.638778100072516,0.001008844
1358.7,2134.0,17793.0,5.6202e-05,68.734,80.728,114.12,42.344,60.184,1078.7,0.026329,,,supercritical,H2O,C7732185,water,647.0,220.64,17.9,0.0558659217877095,2.1,9.6718636693256,0.0010060158
1358.7,2141.4,17843.0,5.6045e-05,68.715,80.716,114.08,42.355,60.204,1079.9,0.026156,,,supercritical,H2O,C7732185,water,647.0,220.64,17.9,0.0558659217877095,2.1,9.705402465554752,0.0010032055
1358.7,2148.7,17893.0,5.5889e-05,68.696,80.705,114.04,42.365,60.224,1081.0,0.025985,,,supercritical,H2O,C7732185,water,647.0,220.64,17.9,0.0558659217877095,2.1,9.738488034807832,0.0010004131
1358.7,2156.1,17942.0,5.5735e-05,68.677,80.693,114.0,42.376,60.244,1082.2,0.025813,,,supercritical,H2O,C7732185,water,647.0,220.64,17.9,0.0558659217877095,2.1,9.772026831036984,0.0009976565
1358.7,2163.4,17992.0,5.5582e-05,68.657,80.682,113.96,42.387,60.264,1083.3,0.025643,,,supercritical,H2O,C7732185,water,647.0,220.64,17.9,0.0558659217877095,2.1,9.805112400290067,0.0009949178
1358.7,2170.8,18041.0,5.543e-05,68.638,80.671,113.92,42.397,60.283,1084.5,0.025473,,,supercritical,H2O,C7732185,water,647.0,220.64,17.9,0.0558659217877095,2.1,9.838651196519217,0.000992197
1358.7,2178.1,18090.0,5.5279e-05,68.619,80.659,113.89,42.408,60.303,1085.7,0.025304,,,supercritical,H2O,C7732185,water,647.0,220.64,17.9,0.0558659217877095,2.1,9.8717367657723,0.0009894940999999999
1358.7,2185.5,18139.0,5.5129e-05,68.6,80.648,113.85,42.418,60.322,1086.8,0.025136,,,supercritical,H2O,C7732185,water,647.0,220.64,17.9,0.0558659217877095,2.1,9.905275562001451,0.0009868091
1358.7,2192.8,18188.0,5.498e-05,68.581,80.637,113.81,42.429,60.341,1088.0,0.024968,,,supercritical,H2O,C7732185,water,647.0,220.64,17.9,0.0558659217877095,2.1,9.938361131254533,0.000984142
1358.7,2200.2,18237.0,5.4832e-05,68.562,80.626,113.77,42.439,60.36,1089.1,0.024801,,,supercritical,H2O,C7732185,water,647.0,220.64,17.9,0.0558659217877095,2.1,9.971899927483683,0.0009814927999999999
1358.7,2207.5,18286.0,5.4686e-05,68.543,80.615,113.73,42.45,60.379,1090.3,0.024635,,,supercritical,H2O,C7732185,water,647.0,220.64,17.9,0.0558659217877095,2.1,10.004985496736767,0.0009788794
1358.7,2214.8,18335.0,5.4541e-05,68.524,80.604,113.7,42.46,60.397,1091.5,0.024469,,,supercritical,H2O,C7732185,water,647.0,220.64,17.9,0.0558659217877095,2.1,10.038071065989849,0.0009762838999999999
1358.7,2222.2,18384.0,5.4396e-05,68.506,80.593,113.66,42.47,60.416,1092.6,0.024304,,,supercritical,H2O,C7732185,water,647.0,220.64,17.9,0.0558659217877095,2.1,10.071609862218999,0.0009736883999999999
1358.7,2229.5,18432.0,5.4253e-05,68.487,80.583,113.62,42.481,60.434,1093.8,0.02414,,,supercritical,H2O,C7732185,water,647.0,220.64,17.9,0.0558659217877095,2.1,10.104695431472082,0.0009711286999999998
1358.7,2236.9,18481.0,5.4111e-05,68.468,80.572,113.58,42.491,60.452,1094.9,0.023976,,,supercritical,H2O,C7732185,water,647.0,220.64,17.9,0.0558659217877095,2.1,10.138234227701235,0.0009685868999999999