Temperature (K),Pressure (bar),Density (mol/m3),Volume (m3/mol),Internal Energy (kJ/mol),Enthalpy (kJ/mol),Entropy (J/mol*K),Cv (J/mol*K),Cp (J/mol*K),Sound Spd. (m/s),Joule-Thomson (K/bar),Viscosity (uPa*s),Therm. Cond. (W/m*K),Phase,substance,substance_id,substance_name,Tc,Pc,rhoc,Vmc,Tr,Pr,Vmr
456.27,450.88,13068.0,7.652e-05,19.349,22.799,76.7,39.869,71.155,464.05,0.068782,48.6,0.066941,supercritical,CO2,C124389,carbon-dioxide,304.18,73.8,10.6,0.09433962264150944,1.5,6.109485094850949,0.000811112
456.27,453.33,13115.0,7.6251e-05,19.331,22.787,76.632,39.874,71.131,465.56,0.067869,48.796,0.067151,supercritical,CO2,C124389,carbon-dioxide,304.18,73.8,10.6,0.09433962264150944,1.5,6.142682926829268,0.0008082606
456.27,455.79,13160.0,7.5986e-05,19.312,22.776,76.565,39.879,71.106,467.07,0.066967,48.992,0.06736,supercritical,CO2,C124389,carbon-dioxide,304.18,73.8,10.6,0.09433962264150944,1.5,6.176016260162602,0.0008054516
456.27,458.25,13206.0,7.5724e-05,19.294,22.764,76.499,39.885,71.081,468.58,0.066077,49.188,0.067569,supercritical,CO2,C124389,carbon-dioxide,304.18,73.8,10.6,0.09433962264150944,1.5,6.2093495934959355,0.0008026743999999999
456.27,460.71,13251.0,7.5466e-05,19.276,22.752,76.433,39.89,71.055,470.08,0.065197,49.384,0.067777,supercritical,CO2,C124389,carbon-dioxide,304.18,73.8,10.6,0.09433962264150944,1.5,6.242682926829268,0.0007999395999999999
456.27,463.17,13296.0,7.5211e-05,19.258,22.741,76.368,39.895,71.029,471.59,0.064329,49.579,0.067984,supercritical,CO2,C124389,carbon-dioxide,304.18,73.8,10.6,0.09433962264150944,1.5,6.276016260162602,0.0007972365999999999
456.27,465.63,13341.0,7.496e-05,19.24,22.73,76.303,39.9,71.003,473.09,0.063471,49.774,0.06819,supercritical,CO2,C124389,carbon-dioxide,304.18,73.8,10.6,0.09433962264150944,1.5,6.309349593495935,0.000794576
456.27,468.08,13385.0,7.4712e-05,19.222,22.719,76.239,39.905,70.977,474.59,0.062624,49.968,0.068396,supercritical,CO2,C124389,carbon-dioxide,304.18,73.8,10.6,0.09433962264150944,1.5,6.342547425474255,0.0007919471999999999
456.27,470.54,13429.0,7.4467e-05,19.204,22.708,76.175,39.91,70.95,476.09,0.061788,50.162,0.068601,supercritical,CO2,C124389,carbon-dioxide,304.18,73.8,10.6,0.09433962264150944,1.5,6.375880758807589,0.0007893501999999999
456.27,473.0,13472.0,7.4226e-05,19.187,22.697,76.111,39.915,70.923,477.59,0.060961,50.356,0.068805,supercritical,CO2,C124389,carbon-dioxide,304.18,73.8,10.6,0.09433962264150944,1.5,6.409214092140922,0.0007867956
456.27,475.46,13516.0,7.3988e-05,19.169,22.687,76.048,39.92,70.895,479.09,0.060145,50.549,0.069008,supercritical,CO2,C124389,carbon-dioxide,304.18,73.8,10.6,0.09433962264150944,1.5,6.442547425474254,0.0007842727999999999
456.27,477.92,13559.0,7.3753e-05,19.152,22.676,75.985,39.925,70.867,480.59,0.059339,50.742,0.069211,supercritical,CO2,C124389,carbon-dioxide,304.18,73.8,10.6,0.09433962264150944,1.5,6.475880758807588,0.0007817817999999999
456.27,480.38,13602.0,7.3521e-05,19.134,22.666,75.923,39.929,70.84,482.08,0.058543,50.934,0.069413,supercritical,CO2,C124389,carbon-dioxide,304.18,73.8,10.6,0.09433962264150944,1.5,6.509214092140922,0.0007793225999999999
456.27,482.83,13644.0,7.3292e-05,19.117,22.656,75.861,39.934,70.812,483.57,0.057757,51.126,0.069614,supercritical,CO2,C124389,carbon-dioxide,304.18,73.8,10.6,0.09433962264150944,1.5,6.542411924119241,0.0007768952
456.27,485.29,13686.0,7.3066e-05,19.1,22.646,75.8,39.939,70.783,485.06,0.05698,51.318,0.069815,supercritical,CO2,C124389,carbon-dioxide,304.18,73.8,10.6,0.09433962264150944,1.5,6.575745257452575,0.0007744995999999999
456.27,487.75,13728.0,7.2842e-05,19.083,22.636,75.739,39.944,70.755,486.55,0.056212,51.509,0.070015,supercritical,CO2,C124389,carbon-dioxide,304.18,73.8,10.6,0.09433962264150944,1.5,6.609078590785908,0.0007721252
456.27,490.21,13770.0,7.2622e-05,19.067,22.627,75.679,39.949,70.726,488.03,0.055454,51.7,0.070214,supercritical,CO2,C124389,carbon-dioxide,304.18,73.8,10.6,0.09433962264150944,1.5,6.642411924119241,0.0007697931999999999
456.27,492.67,13811.0,7.2404e-05,19.05,22.617,75.619,39.953,70.697,489.52,0.054705,51.891,0.070412,supercritical,CO2,C124389,carbon-dioxide,304.18,73.8,10.6,0.09433962264150944,1.5,6.675745257452575,0.0007674824
456.27,495.13,13852.0,7.2189e-05,19.033,22.608,75.559,39.958,70.668,491.0,0.053965,52.081,0.07061,supercritical,CO2,C124389,carbon-dioxide,304.18,73.8,10.6,0.09433962264150944,1.5,6.709078590785908,0.0007652033999999999
456.27,497.58,13893.0,7.1977e-05,19.017,22.598,75.5,39.963,70.639,492.48,0.053234,52.271,0.070807,supercritical,CO2,C124389,carbon-dioxide,304.18,73.8,10.6,0.09433962264150944,1.5,6.742276422764228,0.0007629562
456.27,500.04,13934.0,7.1768e-05,19.0,22.589,75.441,39.968,70.61,493.96,0.052512,52.46,0.071004,supercritical,CO2,C124389,carbon-dioxide,304.18,73.8,10.6,0.09433962264150944,1.5,6.775609756097562,0.0007607407999999999
456.27,502.5,13974.0,7.1561e-05,18.984,22.58,75.383,39.972,70.581,495.43,0.051798,52.649,0.071199,supercritical,CO2,C124389,carbon-dioxide,304.18,73.8,10.6,0.09433962264150944,1.5,6.808943089430895,0.0007585466
456.27,504.96,14014.0,7.1356e-05,18.968,22.571,75.325,39.977,70.551,496.91,0.051093,52.838,0.071394,supercritical,CO2,C124389,carbon-dioxide,304.18,73.8,10.6,0.09433962264150944,1.5,6.842276422764227,0.0007563736
456.27,507.42,14054.0,7.1154e-05,18.952,22.562,75.267,39.982,70.522,498.38,0.050396,53.026,0.071589,supercritical,CO2,C124389,carbon-dioxide,304.18,73.8,10.6,0.09433962264150944,1.5,6.875609756097561,0.0007542324
456.27,509.88,14094.0,7.0954e-05,18.936,22.554,75.21,39.986,70.492,499.85,0.049708,53.214,0.071783,supercritical,CO2,C124389,carbon-dioxide,304.18,73.8,10.6,0.09433962264150944,1.5,6.9089430894308945,0.0007521123999999999
456.27,512.33,14133.0,7.0757e-05,18.92,22.545,75.153,39.991,70.462,501.32,0.049027,53.401,0.071976,supercritical,CO2,C124389,carbon-dioxide,304.18,73.8,10.6,0.09433962264150944,1.5,6.942140921409215,0.0007500241999999999
456.27,514.79,14172.0,7.0562e-05,18.904,22.537,75.096,39.996,70.433,502.78,0.048354,53.588,0.072168,supercritical,CO2,C124389,carbon-dioxide,304.18,73.8,10.6,0.09433962264150944,1.5,6.975474254742547,0.0007479572
456.27,517.25,14211.0,7.037e-05,18.888,22.528,75.04,40.0,70.403,504.24,0.04769,53.775,0.07236,supercritical,CO2,C124389,carbon-dioxide,304.18,73.8,10.6,0.09433962264150944,1.5,7.008807588075881,0.000745922
456.27,519.71,14249.0,7.0179e-05,18.873,22.52,74.984,40.005,70.373,505.7,0.047033,53.961,0.072552,supercritical,CO2,C124389,carbon-dioxide,304.18,73.8,10.6,0.09433962264150944,1.5,7.0421409214092145,0.0007438973999999999
456.27,522.17,14288.0,6.9991e-05,18.857,22.512,74.929,40.009,70.343,507.16,0.046383,54.147,0.072742,supercritical,CO2,C124389,carbon-dioxide,304.18,73.8,10.6,0.09433962264150944,1.5,7.075474254742547,0.0007419045999999999
456.27,524.63,14326.0,6.9805e-05,18.842,22.504,74.873,40.014,70.313,508.62,0.045741,54.333,0.072932,supercritical,CO2,C124389,carbon-dioxide,304.18,73.8,10.6,0.09433962264150944,1.5,7.108807588075881,0.0007399329999999999
456.27,527.08,14363.0,6.9621e-05,18.827,22.496,74.819,40.018,70.283,510.07,0.045107,54.518,0.073122,supercritical,CO2,C124389,carbon-dioxide,304.18,73.8,10.6,0.09433962264150944,1.5,7.142005420054201,0.0007379826
456.27,529.54,14401.0,6.944e-05,18.811,22.488,74.764,40.023,70.253,511.52,0.044479,54.702,0.07331,supercritical,CO2,C124389,carbon-dioxide,304.18,73.8,10.6,0.09433962264150944,1.5,7.175338753387534,0.0007360639999999999
456.27,532.0,14438.0,6.926e-05,18.796,22.481,74.71,40.028,70.223,512.97,0.043859,54.887,0.073499,supercritical,CO2,C124389,carbon-dioxide,304.18,73.8,10.6,0.09433962264150944,1.5,7.208672086720868,0.0007341559999999999
456.27,534.46,14475.0,6.9082e-05,18.781,22.473,74.656,40.032,70.193,514.42,0.043246,55.071,0.073686,supercritical,CO2,C124389,carbon-dioxide,304.18,73.8,10.6,0.09433962264150944,1.5,7.242005420054201,0.0007322692
456.27,536.92,14512.0,6.8907e-05,18.766,22.466,74.603,40.037,70.163,515.86,0.04264,55.254,0.073873,supercritical,CO2,C124389,carbon-dioxide,304.18,73.8,10.6,0.09433962264150944,1.5,7.275338753387533,0.0007304141999999999
456.27,539.38,14549.0,6.8733e-05,18.751,22.459,74.55,40.041,70.133,517.3,0.04204,55.438,0.07406,supercritical,CO2,C124389,carbon-dioxide,304.18,73.8,10.6,0.09433962264150944,1.5,7.308672086720867,0.0007285697999999999
456.27,541.83,14585.0,6.8561e-05,18.737,22.451,74.497,40.046,70.102,518.74,0.041447,55.62,0.074245,supercritical,CO2,C124389,carbon-dioxide,304.18,73.8,10.6,0.09433962264150944,1.5,7.341869918699188,0.0007267465999999999
456.27,544.29,14622.0,6.8391e-05,18.722,22.444,74.445,40.05,70.072,520.18,0.040861,55.803,0.074431,supercritical,CO2,C124389,carbon-dioxide,304.18,73.8,10.6,0.09433962264150944,1.5,7.37520325203252,0.0007249446
456.27,546.75,14658.0,6.8223e-05,18.707,22.437,74.393,40.055,70.042,521.61,0.040282,55.985,0.074615,supercritical,CO2,C124389,carbon-dioxide,304.18,73.8,10.6,0.09433962264150944,1.5,7.408536585365854,0.0007231637999999999
456.27,549.21,14694.0,6.8057e-05,18.693,22.43,74.341,40.059,70.012,523.05,0.039708,56.167,0.074799,supercritical,CO2,C124389,carbon-dioxide,304.18,73.8,10.6,0.09433962264150944,1.5,7.4418699186991875,0.0007214042
456.27,551.67,14729.0,6.7893e-05,18.678,22.424,74.289,40.064,69.982,524.48,0.039141,56.348,0.074983,supercritical,CO2,C124389,carbon-dioxide,304.18,73.8,10.6,0.09433962264150944,1.5,7.47520325203252,0.0007196657999999999
456.27,554.13,14764.0,6.773e-05,18.664,22.417,74.238,40.068,69.952,525.9,0.038581,56.529,0.075166,supercritical,CO2,C124389,carbon-dioxide,304.18,73.8,10.6,0.09433962264150944,1.5,7.508536585365854,0.000717938
456.27,556.58,14800.0,6.7569e-05,18.65,22.41,74.187,40.072,69.922,527.33,0.038026,56.71,0.075348,supercritical,CO2,C124389,carbon-dioxide,304.18,73.8,10.6,0.09433962264150944,1.5,7.541734417344174,0.0007162313999999999
456.27,559.04,14835.0,6.741e-05,18.635,22.404,74.137,40.077,69.892,528.75,0.037477,56.89,0.07553,supercritical,CO2,C124389,carbon-dioxide,304.18,73.8,10.6,0.09433962264150944,1.5,7.575067750677507,0.0007145459999999998
456.27,561.5,14869.0,6.7253e-05,18.621,22.398,74.086,40.081,69.862,530.17,0.036935,57.07,0.075711,supercritical,CO2,C124389,carbon-dioxide,304.18,73.8,10.6,0.09433962264150944,1.5,7.608401084010841,0.0007128818
456.27,563.96,14904.0,6.7097e-05,18.607,22.391,74.036,40.086,69.832,531.59,0.036398,57.249,0.075892,supercritical,CO2,C124389,carbon-dioxide,304.18,73.8,10.6,0.09433962264150944,1.5,7.641734417344174,0.0007112281999999999
456.27,566.42,14938.0,6.6943e-05,18.593,22.385,73.987,40.09,69.802,533.0,0.035867,57.428,0.076073,supercritical,CO2,C124389,carbon-dioxide,304.18,73.8,10.6,0.09433962264150944,1.5,7.675067750677506,0.0007095958
456.27,568.88,14972.0,6.679e-05,18.579,22.379,73.937,40.095,69.772,534.42,0.035341,57.607,0.076252,supercritical,CO2,C124389,carbon-dioxide,304.18,73.8,10.6,0.09433962264150944,1.5,7.70840108401084,0.000707974
456.27,571.33,15006.0,6.6639e-05,18.566,22.373,73.888,40.099,69.742,535.83,0.034821,57.785,0.076431,supercritical,CO2,C124389,carbon-dioxide,304.18,73.8,10.6,0.09433962264150944,1.5,7.741598915989161,0.0007063734
456.27,573.79,15040.0,6.6489e-05,18.552,22.367,73.839,40.104,69.712,537.23,0.034307,57.963,0.07661,supercritical,CO2,C124389,carbon-dioxide,304.18,73.8,10.6,0.09433962264150944,1.5,7.774932249322493,0.0007047834
456.27,576.25,15074.0,6.6341e-05,18.538,22.361,73.791,40.108,69.682,538.64,0.033798,58.141,0.076788,supercritical,CO2,C124389,carbon-dioxide,304.18,73.8,10.6,0.09433962264150944,1.5,7.808265582655827,0.0007032145999999998
456.27,578.71,15107.0,6.6195e-05,18.525,22.355,73.742,40.112,69.652,540.04,0.033294,58.318,0.076966,supercritical,CO2,C124389,carbon-dioxide,304.18,73.8,10.6,0.09433962264150944,1.5,7.84159891598916,0.0007016669999999999
456.27,581.17,15140.0,6.605e-05,18.511,22.35,73.694,40.117,69.622,541.44,0.032796,58.495,0.077143,supercritical,CO2,C124389,carbon-dioxide,304.18,73.8,10.6,0.09433962264150944,1.5,7.874932249322493,0.00070013
456.27,583.63,15173.0,6.5906e-05,18.498,22.344,73.647,40.121,69.593,542.84,0.032302,58.671,0.07732,supercritical,CO2,C124389,carbon-dioxide,304.18,73.8,10.6,0.09433962264150944,1.5,7.908265582655827,0.0006986036
456.27,586.08,15206.0,6.5764e-05,18.484,22.339,73.599,40.126,69.563,544.24,0.031814,58.848,0.077496,supercritical,CO2,C124389,carbon-dioxide,304.18,73.8,10.6,0.09433962264150944,1.5,7.941463414634147,0.0006970984
456.27,588.54,15238.0,6.5624e-05,18.471,22.333,73.552,40.13,69.533,545.63,0.031331,59.023,0.077672,supercritical,CO2,C124389,carbon-dioxide,304.18,73.8,10.6,0.09433962264150944,1.5,7.9747967479674795,0.0006956143999999999
456.27,591.0,15271.0,6.5484e-05,18.458,22.328,73.505,40.134,69.504,547.02,0.030853,59.199,0.077847,supercritical,CO2,C124389,carbon-dioxide,304.18,73.8,10.6,0.09433962264150944,1.5,8.008130081300813,0.0006941304
456.27,593.46,15303.0,6.5346e-05,18.445,22.323,73.458,40.139,69.474,548.41,0.030379,59.374,0.078021,supercritical,CO2,C124389,carbon-dioxide,304.18,73.8,10.6,0.09433962264150944,1.5,8.041463414634148,0.0006926675999999999
456.27,595.92,15335.0,6.521e-05,18.432,22.318,73.412,40.143,69.445,549.8,0.029911,59.549,0.078195,supercritical,CO2,C124389,carbon-dioxide,304.18,73.8,10.6,0.09433962264150944,1.5,8.07479674796748,0.0006912259999999999
456.27,598.38,15367.0,6.5074e-05,18.419,22.313,73.366,40.148,69.415,551.18,0.029447,59.723,0.078369,supercritical,CO2,C124389,carbon-dioxide,304.18,73.8,10.6,0.09433962264150944,1.5,8.108130081300814,0.0006897843999999998
456.27,600.83,15399.0,6.494e-05,18.406,22.308,73.32,40.152,69.386,552.56,0.028988,59.897,0.078542,supercritical,CO2,C124389,carbon-dioxide,304.18,73.8,10.6,0.09433962264150944,1.5,8.141327913279135,0.0006883639999999999
456.27,603.29,15430.0,6.4808e-05,18.393,22.303,73.274,40.157,69.357,553.94,0.028533,60.071,0.078715,supercritical,CO2,C124389,carbon-dioxide,304.18,73.8,10.6,0.09433962264150944,1.5,8.174661246612466,0.0006869647999999999
456.27,605.75,15462.0,6.4676e-05,18.38,22.298,73.229,40.161,69.328,555.32,0.028083,60.244,0.078887,supercritical,CO2,C124389,carbon-dioxide,304.18,73.8,10.6,0.09433962264150944,1.5,8.2079945799458,0.0006855656
456.27,608.21,15493.0,6.4546e-05,18.367,22.293,73.183,40.165,69.298,556.69,0.027638,60.417,0.079059,supercritical,CO2,C124389,carbon-dioxide,304.18,73.8,10.6,0.09433962264150944,1.5,8.241327913279134,0.0006841875999999999
456.27,610.67,15524.0,6.4417e-05,18.355,22.288,73.138,40.17,69.269,558.07,0.027197,60.589,0.079231,supercritical,CO2,C124389,carbon-dioxide,304.18,73.8,10.6,0.09433962264150944,1.5,8.274661246612466,0.0006828202
456.27,613.13,15555.0,6.429e-05,18.342,22.284,73.094,40.174,69.24,559.44,0.02676,60.762,0.079401,supercritical,CO2,C124389,carbon-dioxide,304.18,73.8,10.6,0.09433962264150944,1.5,8.3079945799458,0.000681474
456.27,615.58,15585.0,6.4163e-05,18.33,22.279,73.049,40.178,69.211,560.8,0.026327,60.934,0.079572,supercritical,CO2,C124389,carbon-dioxide,304.18,73.8,10.6,0.09433962264150944,1.5,8.341192411924121,0.0006801277999999999
456.27,618.04,15616.0,6.4038e-05,18.317,22.275,73.005,40.183,69.182,562.17,0.025899,61.105,0.079742,supercritical,CO2,C124389,carbon-dioxide,304.18,73.8,10.6,0.09433962264150944,1.5,8.374525745257452,0.0006788027999999999
456.27,620.5,15646.0,6.3913e-05,18.305,22.27,72.961,40.187,69.153,563.53,0.025475,61.276,0.079911,supercritical,CO2,C124389,carbon-dioxide,304.18,73.8,10.6,0.09433962264150944,1.5,8.407859078590786,0.0006774778
456.27,622.96,15676.0,6.379e-05,18.292,22.266,72.917,40.192,69.125,564.89,0.025055,61.447,0.080081,supercritical,CO2,C124389,carbon-dioxide,304.18,73.8,10.6,0.09433962264150944,1.5,8.44119241192412,0.0006761739999999999
456.27,625.42,15706.0,6.3668e-05,18.28,22.262,72.873,40.196,69.096,566.25,0.024639,61.618,0.080249,supercritical,CO2,C124389,carbon-dioxide,304.18,73.8,10.6,0.09433962264150944,1.5,8.474525745257452,0.0006748807999999999
456.27,627.88,15736.0,6.3548e-05,18.268,22.258,72.83,40.2,69.067,567.6,0.024227,61.788,0.080418,supercritical,CO2,C124389,carbon-dioxide,304.18,73.8,10.6,0.09433962264150944,1.5,8.507859078590787,0.0006736087999999999
456.27,630.33,15766.0,6.3428e-05,18.256,22.254,72.787,40.205,69.039,568.96,0.023819,61.958,0.080585,supercritical,CO2,C124389,carbon-dioxide,304.18,73.8,10.6,0.09433962264150944,1.5,8.541056910569107,0.0006723368
456.27,632.79,15796.0,6.3309e-05,18.244,22.25,72.744,40.209,69.01,570.31,0.023415,62.128,0.080753,supercritical,CO2,C124389,carbon-dioxide,304.18,73.8,10.6,0.09433962264150944,1.5,8.574390243902439,0.0006710754
456.27,635.25,15825.0,6.3191e-05,18.232,22.246,72.701,40.214,68.982,571.65,0.023015,62.297,0.08092,supercritical,CO2,C124389,carbon-dioxide,304.18,73.8,10.6,0.09433962264150944,1.5,8.607723577235772,0.0006698246
456.27,637.71,15854.0,6.3075e-05,18.22,22.242,72.659,40.218,68.954,573.0,0.022619,62.466,0.081086,supercritical,CO2,C124389,carbon-dioxide,304.18,73.8,10.6,0.09433962264150944,1.5,8.641056910569107,0.000668595
456.27,640.17,15883.0,6.2959e-05,18.208,22.238,72.616,40.222,68.926,574.34,0.022226,62.634,0.081252,supercritical,CO2,C124389,carbon-dioxide,304.18,73.8,10.6,0.09433962264150944,1.5,8.674390243902439,0.0006673654
456.27,642.63,15912.0,6.2845e-05,18.196,22.234,72.574,40.227,68.897,575.68,0.021837,62.802,0.081418,supercritical,CO2,C124389,carbon-dioxide,304.18,73.8,10.6,0.09433962264150944,1.5,8.707723577235774,0.0006661569999999999
456.27,645.08,15941.0,6.2731e-05,18.184,22.231,72.533,40.231,68.869,577.02,0.021452,62.97,0.081583,supercritical,CO2,C124389,carbon-dioxide,304.18,73.8,10.6,0.09433962264150944,1.5,8.740921409214094,0.0006649486
456.27,647.54,15970.0,6.2619e-05,18.172,22.227,72.491,40.236,68.841,578.36,0.021071,63.138,0.081748,supercritical,CO2,C124389,carbon-dioxide,304.18,73.8,10.6,0.09433962264150944,1.5,8.774254742547425,0.0006637614
456.27,650.0,15998.0,6.2507e-05,18.161,22.224,72.449,40.24,68.813,579.69,0.020693,63.305,0.081913,supercritical,CO2,C124389,carbon-dioxide,304.18,73.8,10.6,0.09433962264150944,1.5,8.807588075880759,0.0006625741999999999
456.27,652.46,16026.0,6.2397e-05,18.149,22.22,72.408,40.244,68.786,581.02,0.020318,63.472,0.082077,supercritical,CO2,C124389,carbon-dioxide,304.18,73.8,10.6,0.09433962264150944,1.5,8.840921409214094,0.0006614082
456.27,654.92,16055.0,6.2287e-05,18.137,22.217,72.367,40.249,68.758,582.35,0.019947,63.639,0.08224,supercritical,CO2,C124389,carbon-dioxide,304.18,73.8,10.6,0.09433962264150944,1.5,8.874254742547425,0.0006602421999999999
456.27,657.38,16083.0,6.2178e-05,18.126,22.213,72.326,40.253,68.73,583.68,0.019579,63.805,0.082404,supercritical,CO2,C124389,carbon-dioxide,304.18,73.8,10.6,0.09433962264150944,1.5,8.90758807588076,0.0006590868
456.27,659.83,16111.0,6.2071e-05,18.114,22.21,72.286,40.258,68.703,585.0,0.019215,63.971,0.082567,supercritical,CO2,C124389,carbon-dioxide,304.18,73.8,10.6,0.09433962264150944,1.5,8.94078590785908,0.0006579525999999999
456.27,662.29,16138.0,6.1964e-05,18.103,22.207,72.245,40.262,68.675,586.32,0.018854,64.137,0.082729,supercritical,CO2,C124389,carbon-dioxide,304.18,73.8,10.6,0.09433962264150944,1.5,8.974119241192412,0.0006568184
456.27,664.75,16166.0,6.1858e-05,18.092,22.204,72.205,40.266,68.648,587.64,0.018497,64.302,0.082891,supercritical,CO2,C124389,carbon-dioxide,304.18,73.8,10.6,0.09433962264150944,1.5,9.007452574525745,0.0006556948
456.27,667.21,16194.0,6.1753e-05,18.08,22.201,72.165,40.271,68.621,588.96,0.018142,64.467,0.083053,supercritical,CO2,C124389,carbon-dioxide,304.18,73.8,10.6,0.09433962264150944,1.5,9.04078590785908,0.0006545818
456.27,669.67,16221.0,6.1648e-05,18.069,22.198,72.125,40.275,68.594,590.27,0.017791,64.632,0.083214,supercritical,CO2,C124389,carbon-dioxide,304.18,73.8,10.6,0.09433962264150944,1.5,9.074119241192411,0.0006534688
456.27,672.13,16248.0,6.1545e-05,18.058,22.195,72.085,40.28,68.567,591.58,0.017443,64.796,0.083375,supercritical,CO2,C124389,carbon-dioxide,304.18,73.8,10.6,0.09433962264150944,1.5,9.107452574525746,0.0006523769999999999