Temperature (K),Pressure (bar),Density (mol/m3),Volume (m3/mol),Internal Energy (kJ/mol),Enthalpy (kJ/mol),Entropy (J/mol*K),Cv (J/mol*K),Cp (J/mol*K),Sound Spd. (m/s),Joule-Thomson (K/bar),Viscosity (uPa*s),Therm. Cond. (W/m*K),Phase,substance,substance_id,substance_name,Tc,Pc,rhoc,Vmc,Tr,Pr,Vmr
776.4,2104.6,38777.0,2.5789e-05,34.584,40.012,74.562,47.591,77.121,1290.5,0.0037718,88.948,0.57301,supercritical,H2O,C7732185,water,647.0,220.64,17.9,0.0558659217877095,1.2,9.538614938361132,0.00046162309999999996
776.4,2112.0,38816.0,2.5762e-05,34.569,40.01,74.535,47.594,77.059,1292.7,0.0036517,89.064,0.57387,supercritical,H2O,C7732185,water,647.0,220.64,17.9,0.0558659217877095,1.2,9.572153734590284,0.00046113979999999995
776.4,2119.3,38856.0,2.5736e-05,34.553,40.008,74.508,47.597,76.997,1294.8,0.0035326,89.18,0.57472,supercritical,H2O,C7732185,water,647.0,220.64,17.9,0.0558659217877095,1.2,9.605239303843366,0.0004606744
776.4,2126.7,38895.0,2.571e-05,34.538,40.006,74.481,47.6,76.936,1297.0,0.0034145,89.296,0.57558,supercritical,H2O,C7732185,water,647.0,220.64,17.9,0.0558659217877095,1.2,9.638778100072516,0.00046020899999999994
776.4,2134.0,38934.0,2.5685e-05,34.523,40.004,74.454,47.603,76.875,1299.1,0.0032974,89.411,0.57643,supercritical,H2O,C7732185,water,647.0,220.64,17.9,0.0558659217877095,1.2,9.6718636693256,0.00045976149999999994
776.4,2141.4,38973.0,2.5659e-05,34.508,40.002,74.427,47.606,76.814,1301.3,0.0031813,89.526,0.57729,supercritical,H2O,C7732185,water,647.0,220.64,17.9,0.0558659217877095,1.2,9.705402465554752,0.00045929609999999997
776.4,2148.7,39012.0,2.5633e-05,34.492,40.0,74.401,47.608,76.754,1303.4,0.0030661,89.64,0.57814,supercritical,H2O,C7732185,water,647.0,220.64,17.9,0.0558659217877095,1.2,9.738488034807832,0.0004588307
776.4,2156.1,39050.0,2.5608e-05,34.477,39.999,74.374,47.611,76.694,1305.5,0.0029518,89.755,0.57898,supercritical,H2O,C7732185,water,647.0,220.64,17.9,0.0558659217877095,1.2,9.772026831036984,0.00045838319999999994
776.4,2163.4,39089.0,2.5583e-05,34.462,39.997,74.348,47.614,76.635,1307.6,0.0028385,89.869,0.57983,supercritical,H2O,C7732185,water,647.0,220.64,17.9,0.0558659217877095,1.2,9.805112400290067,0.00045793569999999994
776.4,2170.8,39127.0,2.5558e-05,34.447,39.995,74.322,47.617,76.576,1309.7,0.0027262,89.982,0.58068,supercritical,H2O,C7732185,water,647.0,220.64,17.9,0.0558659217877095,1.2,9.838651196519217,0.0004574882
776.4,2178.1,39165.0,2.5533e-05,34.433,39.994,74.296,47.62,76.518,1311.8,0.0026147,90.096,0.58152,supercritical,H2O,C7732185,water,647.0,220.64,17.9,0.0558659217877095,1.2,9.8717367657723,0.0004570407
776.4,2185.5,39203.0,2.5508e-05,34.418,39.992,74.27,47.623,76.46,1313.9,0.0025041,90.209,0.58236,supercritical,H2O,C7732185,water,647.0,220.64,17.9,0.0558659217877095,1.2,9.905275562001451,0.0004565932
776.4,2192.8,39241.0,2.5483e-05,34.403,39.991,74.244,47.626,76.403,1316.0,0.0023945,90.322,0.5832,supercritical,H2O,C7732185,water,647.0,220.64,17.9,0.0558659217877095,1.2,9.938361131254533,0.00045614569999999994
776.4,2200.2,39279.0,2.5459e-05,34.388,39.99,74.218,47.629,76.345,1318.1,0.0022857,90.434,0.58404,supercritical,H2O,C7732185,water,647.0,220.64,17.9,0.0558659217877095,1.2,9.971899927483683,0.0004557161
776.4,2207.5,39316.0,2.5435e-05,34.374,39.989,74.192,47.632,76.289,1320.2,0.0021778,90.546,0.58487,supercritical,H2O,C7732185,water,647.0,220.64,17.9,0.0558659217877095,1.2,10.004985496736767,0.00045528649999999996
776.4,2214.8,39354.0,2.541e-05,34.359,39.987,74.167,47.635,76.233,1322.3,0.0020707,90.658,0.58571,supercritical,H2O,C7732185,water,647.0,220.64,17.9,0.0558659217877095,1.2,10.038071065989849,0.00045483899999999996
776.4,2222.2,39391.0,2.5386e-05,34.345,39.986,74.141,47.638,76.177,1324.3,0.0019645,90.77,0.58654,supercritical,H2O,C7732185,water,647.0,220.64,17.9,0.0558659217877095,1.2,10.071609862218999,0.0004544094
776.4,2229.5,39428.0,2.5363e-05,34.33,39.985,74.116,47.641,76.121,1326.4,0.0018592,90.881,0.58737,supercritical,H2O,C7732185,water,647.0,220.64,17.9,0.0558659217877095,1.2,10.104695431472082,0.0004539977
776.4,2236.9,39465.0,2.5339e-05,34.316,39.984,74.09,47.644,76.066,1328.5,0.0017547,90.992,0.5882,supercritical,H2O,C7732185,water,647.0,220.64,17.9,0.0558659217877095,1.2,10.138234227701235,0.00045356809999999993
776.4,2244.2,39502.0,2.5315e-05,34.302,39.983,74.065,47.647,76.012,1330.5,0.0016509,91.103,0.58903,supercritical,H2O,C7732185,water,647.0,220.64,17.9,0.0558659217877095,1.2,10.171319796954315,0.00045313849999999996
776.4,2251.6,39539.0,2.5292e-05,34.288,39.982,74.04,47.65,75.957,1332.6,0.0015481,91.214,0.58986,supercritical,H2O,C7732185,water,647.0,220.64,17.9,0.0558659217877095,1.2,10.204858593183467,0.0004527268
776.4,2258.9,39575.0,2.5268e-05,34.273,39.981,74.015,47.653,75.903,1334.6,0.001446,91.324,0.59068,supercritical,H2O,C7732185,water,647.0,220.64,17.9,0.0558659217877095,1.2,10.23794416243655,0.00045229719999999996
776.4,2266.3,39612.0,2.5245e-05,34.259,39.981,73.99,47.656,75.85,1336.7,0.0013447,91.434,0.5915,supercritical,H2O,C7732185,water,647.0,220.64,17.9,0.0558659217877095,1.2,10.2714829586657,0.00045188549999999997
776.4,2273.6,39648.0,2.5222e-05,34.245,39.98,73.965,47.659,75.797,1338.7,0.0012442,91.544,0.59232,supercritical,H2O,C7732185,water,647.0,220.64,17.9,0.0558659217877095,1.2,10.304568527918782,0.0004514738
776.4,2281.0,39684.0,2.5199e-05,34.231,39.979,73.941,47.662,75.744,1340.7,0.0011444,91.653,0.59314,supercritical,H2O,C7732185,water,647.0,220.64,17.9,0.0558659217877095,1.2,10.338107324147934,0.0004510621
776.4,2288.3,39720.0,2.5176e-05,34.218,39.979,73.916,47.665,75.692,1342.7,0.0010454,91.762,0.59396,supercritical,H2O,C7732185,water,647.0,220.64,17.9,0.0558659217877095,1.2,10.371192893401016,0.0004506504
776.4,2295.7,39756.0,2.5153e-05,34.204,39.978,73.892,47.668,75.64,1344.7,0.00094724,91.871,0.59478,supercritical,H2O,C7732185,water,647.0,220.64,17.9,0.0558659217877095,1.2,10.404731689630166,0.0004502387
776.4,2303.0,39792.0,2.5131e-05,34.19,39.978,73.867,47.671,75.588,1346.8,0.00084977,91.98,0.59559,supercritical,H2O,C7732185,water,647.0,220.64,17.9,0.0558659217877095,1.2,10.43781725888325,0.0004498449
776.4,2310.4,39827.0,2.5108e-05,34.176,39.977,73.843,47.674,75.537,1348.8,0.00075305,92.088,0.59641,supercritical,H2O,C7732185,water,647.0,220.64,17.9,0.0558659217877095,1.2,10.471356055112402,0.00044943319999999996
776.4,2317.7,39863.0,2.5086e-05,34.162,39.977,73.818,47.678,75.486,1350.8,0.00065706,92.196,0.59722,supercritical,H2O,C7732185,water,647.0,220.64,17.9,0.0558659217877095,1.2,10.504441624365482,0.00044903939999999995
776.4,2325.1,39898.0,2.5064e-05,34.149,39.976,73.794,47.681,75.435,1352.8,0.00056179,92.304,0.59803,supercritical,H2O,C7732185,water,647.0,220.64,17.9,0.0558659217877095,1.2,10.537980420594634,0.00044864559999999995
776.4,2332.4,39933.0,2.5042e-05,34.135,39.976,73.77,47.684,75.385,1354.8,0.00046724,92.412,0.59884,supercritical,H2O,C7732185,water,647.0,220.64,17.9,0.0558659217877095,1.2,10.571065989847718,0.00044825179999999994
776.4,2339.8,39968.0,2.502e-05,34.122,39.976,73.746,47.687,75.335,1356.7,0.0003734,92.519,0.59965,supercritical,H2O,C7732185,water,647.0,220.64,17.9,0.0558659217877095,1.2,10.60460478607687,0.000447858
776.4,2347.1,40003.0,2.4998e-05,34.108,39.976,73.722,47.69,75.285,1358.7,0.00028026,92.626,0.60045,supercritical,H2O,C7732185,water,647.0,220.64,17.9,0.0558659217877095,1.2,10.63769035532995,0.00044746419999999997
776.4,2354.5,40038.0,2.4976e-05,34.095,39.976,73.699,47.693,75.236,1360.7,0.00018781,92.733,0.60126,supercritical,H2O,C7732185,water,647.0,220.64,17.9,0.0558659217877095,1.2,10.671229151559102,0.00044707039999999996
776.4,2361.8,40073.0,2.4955e-05,34.082,39.976,73.675,47.696,75.187,1362.7,9.605e-05,92.839,0.60206,supercritical,H2O,C7732185,water,647.0,220.64,17.9,0.0558659217877095,1.2,10.704314720812183,0.0004466945
776.4,2369.2,40107.0,2.4933e-05,34.068,39.975,73.651,47.7,75.138,1364.6,4.9658e-06,92.946,0.60286,supercritical,H2O,C7732185,water,647.0,220.64,17.9,0.0558659217877095,1.2,10.737853517041334,0.0004463007
776.4,2376.5,40142.0,2.4912e-05,34.055,39.976,73.628,47.703,75.09,1366.6,-8.5448e-05,93.052,0.60366,supercritical,H2O,C7732185,water,647.0,220.64,17.9,0.0558659217877095,1.2,10.770939086294417,0.0004459248
776.4,2383.9,40176.0,2.489e-05,34.042,39.976,73.604,47.706,75.042,1368.5,-0.0001752,93.158,0.60446,supercritical,H2O,C7732185,water,647.0,220.64,17.9,0.0558659217877095,1.2,10.80447788252357,0.000445531
776.4,2391.2,40210.0,2.4869e-05,34.029,39.976,73.581,47.709,74.995,1370.5,-0.00026429,93.263,0.60526,supercritical,H2O,C7732185,water,647.0,220.64,17.9,0.0558659217877095,1.2,10.83756345177665,0.00044515509999999996
776.4,2398.6,40244.0,2.4848e-05,34.016,39.976,73.557,47.712,74.947,1372.4,-0.00035274,93.368,0.60605,supercritical,H2O,C7732185,water,647.0,220.64,17.9,0.0558659217877095,1.2,10.871102248005801,0.0004447792
776.4,2405.9,40278.0,2.4827e-05,34.003,39.976,73.534,47.715,74.9,1374.4,-0.00044054,93.473,0.60685,supercritical,H2O,C7732185,water,647.0,220.64,17.9,0.0558659217877095,1.2,10.904187817258885,0.0004444033
776.4,2413.3,40312.0,2.4806e-05,33.99,39.976,73.511,47.719,74.853,1376.3,-0.00052771,93.578,0.60764,supercritical,H2O,C7732185,water,647.0,220.64,17.9,0.0558659217877095,1.2,10.937726613488037,0.00044402739999999997
776.4,2420.6,40346.0,2.4786e-05,33.977,39.977,73.488,47.722,74.807,1378.3,-0.00061425,93.683,0.60843,supercritical,H2O,C7732185,water,647.0,220.64,17.9,0.0558659217877095,1.2,10.970812182741117,0.00044366939999999997
776.4,2428.0,40379.0,2.4765e-05,33.964,39.977,73.465,47.725,74.761,1380.2,-0.00070017,93.787,0.60922,supercritical,H2O,C7732185,water,647.0,220.64,17.9,0.0558659217877095,1.2,11.004350978970269,0.0004432935
776.4,2435.3,40413.0,2.4745e-05,33.951,39.977,73.442,47.728,74.715,1382.1,-0.00078547,93.891,0.61001,supercritical,H2O,C7732185,water,647.0,220.64,17.9,0.0558659217877095,1.2,11.037436548223353,0.0004429355
776.4,2442.6,40446.0,2.4724e-05,33.939,39.978,73.419,47.731,74.67,1384.0,-0.00087016,93.995,0.6108,supercritical,H2O,C7732185,water,647.0,220.64,17.9,0.0558659217877095,1.2,11.070522117476433,0.00044255959999999996
776.4,2450.0,40480.0,2.4704e-05,33.926,39.978,73.397,47.735,74.624,1385.9,-0.00095426,94.098,0.61159,supercritical,H2O,C7732185,water,647.0,220.64,17.9,0.0558659217877095,1.2,11.104060913705585,0.00044220159999999996
776.4,2457.3,40513.0,2.4684e-05,33.913,39.979,73.374,47.738,74.579,1387.8,-0.0010378,94.202,0.61237,supercritical,H2O,C7732185,water,647.0,220.64,17.9,0.0558659217877095,1.2,11.137146482958666,0.00044184359999999997
776.4,2464.7,40546.0,2.4664e-05,33.901,39.98,73.351,47.741,74.535,1389.7,-0.0011207,94.305,0.61316,supercritical,H2O,C7732185,water,647.0,220.64,17.9,0.0558659217877095,1.2,11.170685279187817,0.00044148559999999997
776.4,2472.0,40579.0,2.4644e-05,33.888,39.98,73.329,47.744,74.49,1391.6,-0.001203,94.408,0.61394,supercritical,H2O,C7732185,water,647.0,220.64,17.9,0.0558659217877095,1.2,11.2037708484409,0.00044112759999999997
776.4,2479.4,40611.0,2.4624e-05,33.876,39.981,73.306,47.748,74.446,1393.5,-0.0012847,94.51,0.61472,supercritical,H2O,C7732185,water,647.0,220.64,17.9,0.0558659217877095,1.2,11.237309644670052,0.00044076959999999997
776.4,2486.7,40644.0,2.4604e-05,33.863,39.982,73.284,47.751,74.403,1395.4,-0.0013659,94.613,0.6155,supercritical,H2O,C7732185,water,647.0,220.64,17.9,0.0558659217877095,1.2,11.270395213923132,0.00044041159999999997
776.4,2494.1,40677.0,2.4584e-05,33.851,39.982,73.262,47.754,74.359,1397.3,-0.0014465,94.715,0.61628,supercritical,H2O,C7732185,water,647.0,220.64,17.9,0.0558659217877095,1.2,11.303934010152284,0.00044005359999999997
776.4,2501.4,40709.0,2.4564e-05,33.839,39.983,73.239,47.757,74.316,1399.2,-0.0015265,94.817,0.61705,supercritical,H2O,C7732185,water,647.0,220.64,17.9,0.0558659217877095,1.2,11.337019579405368,0.00043969559999999997
776.4,2508.8,40742.0,2.4545e-05,33.826,39.984,73.217,47.761,74.273,1401.1,-0.001606,94.918,0.61783,supercritical,H2O,C7732185,water,647.0,220.64,17.9,0.0558659217877095,1.2,11.37055837563452,0.00043935549999999995
776.4,2516.1,40774.0,2.4526e-05,33.814,39.985,73.195,47.764,74.23,1402.9,-0.001685,95.02,0.6186,supercritical,H2O,C7732185,water,647.0,220.64,17.9,0.0558659217877095,1.2,11.4036439448876,0.00043901539999999993
776.4,2523.5,40806.0,2.4506e-05,33.802,39.986,73.173,47.767,74.188,1404.8,-0.0017634,95.121,0.61938,supercritical,H2O,C7732185,water,647.0,220.64,17.9,0.0558659217877095,1.2,11.437182741116752,0.00043865739999999993
776.4,2530.8,40838.0,2.4487e-05,33.79,39.987,73.151,47.771,74.145,1406.7,-0.0018412,95.222,0.62015,supercritical,H2O,C7732185,water,647.0,220.64,17.9,0.0558659217877095,1.2,11.470268310369836,0.0004383173
776.4,2538.2,40870.0,2.4468e-05,33.777,39.988,73.129,47.774,74.103,1408.5,-0.0019185,95.323,0.62092,supercritical,H2O,C7732185,water,647.0,220.64,17.9,0.0558659217877095,1.2,11.503807106598984,0.0004379772
776.4,2545.5,40902.0,2.4449e-05,33.765,39.989,73.108,47.777,74.062,1410.4,-0.0019953,95.423,0.62169,supercritical,H2O,C7732185,water,647.0,220.64,17.9,0.0558659217877095,1.2,11.536892675852068,0.0004376371
776.4,2552.9,40934.0,2.443e-05,33.753,39.99,73.086,47.78,74.02,1412.2,-0.0020716,95.524,0.62246,supercritical,H2O,C7732185,water,647.0,220.64,17.9,0.0558659217877095,1.2,11.57043147208122,0.000437297
776.4,2560.2,40965.0,2.4411e-05,33.741,39.991,73.064,47.784,73.979,1414.1,-0.0021474,95.624,0.62322,supercritical,H2O,C7732185,water,647.0,220.64,17.9,0.0558659217877095,1.2,11.6035170413343,0.0004369569
776.4,2567.6,40997.0,2.4392e-05,33.73,39.992,73.043,47.787,73.938,1415.9,-0.0022226,95.723,0.62399,supercritical,H2O,C7732185,water,647.0,220.64,17.9,0.0558659217877095,1.2,11.637055837563452,0.00043661679999999997
776.4,2574.9,41028.0,2.4374e-05,33.718,39.994,73.021,47.79,73.898,1417.8,-0.0022974,95.823,0.62475,supercritical,H2O,C7732185,water,647.0,220.64,17.9,0.0558659217877095,1.2,11.670141406816535,0.0004362946
776.4,2582.3,41059.0,2.4355e-05,33.706,39.995,73.0,47.794,73.857,1419.6,-0.0023716,95.923,0.62552,supercritical,H2O,C7732185,water,647.0,220.64,17.9,0.0558659217877095,1.2,11.703680203045687,0.00043595449999999996
776.4,2589.6,41091.0,2.4336e-05,33.694,39.996,72.979,47.797,73.817,1421.4,-0.0024453,96.022,0.62628,supercritical,H2O,C7732185,water,647.0,220.64,17.9,0.0558659217877095,1.2,11.736765772298767,0.00043561439999999994
776.4,2597.0,41122.0,2.4318e-05,33.682,39.998,72.957,47.8,73.777,1423.3,-0.0025186,96.121,0.62704,supercritical,H2O,C7732185,water,647.0,220.64,17.9,0.0558659217877095,1.2,11.77030456852792,0.00043529219999999995
776.4,2604.3,41153.0,2.43e-05,33.671,39.999,72.936,47.803,73.737,1425.1,-0.0025914,96.219,0.6278,supercritical,H2O,C7732185,water,647.0,220.64,17.9,0.0558659217877095,1.2,11.803390137781003,0.00043497
776.4,2611.7,41184.0,2.4281e-05,33.659,40.0,72.915,47.807,73.698,1426.9,-0.0026636,96.318,0.62856,supercritical,H2O,C7732185,water,647.0,220.64,17.9,0.0558659217877095,1.2,11.836928934010151,0.0004346299
776.4,2619.0,41215.0,2.4263e-05,33.647,40.002,72.894,47.81,73.659,1428.7,-0.0027354,96.416,0.62931,supercritical,H2O,C7732185,water,647.0,220.64,17.9,0.0558659217877095,1.2,11.870014503263235,0.0004343077
776.4,2626.4,41245.0,2.4245e-05,33.636,40.003,72.873,47.813,73.62,1430.5,-0.0028068,96.514,0.63007,supercritical,H2O,C7732185,water,647.0,220.64,17.9,0.0558659217877095,1.2,11.903553299492387,0.00043398549999999997
776.4,2633.7,41276.0,2.4227e-05,33.624,40.005,72.852,47.817,73.581,1432.3,-0.0028776,96.612,0.63083,supercritical,H2O,C7732185,water,647.0,220.64,17.9,0.0558659217877095,1.2,11.936638868745467,0.0004336633
776.4,2641.1,41307.0,2.4209e-05,33.613,40.006,72.831,47.82,73.542,1434.1,-0.002948,96.71,0.63158,supercritical,H2O,C7732185,water,647.0,220.64,17.9,0.0558659217877095,1.2,11.970177664974619,0.0004333411
776.4,2648.4,41337.0,2.4191e-05,33.601,40.008,72.81,47.823,73.504,1435.9,-0.003018,96.807,0.63233,supercritical,H2O,C7732185,water,647.0,220.64,17.9,0.0558659217877095,1.2,12.003263234227703,0.00043301889999999995
776.4,2655.7,41367.0,2.4174e-05,33.59,40.01,72.789,47.827,73.466,1437.7,-0.0030874,96.905,0.63308,supercritical,H2O,C7732185,water,647.0,220.64,17.9,0.0558659217877095,1.2,12.036348803480783,0.00043271459999999994
776.4,2663.1,41398.0,2.4156e-05,33.578,40.011,72.769,47.83,73.428,1439.5,-0.0031565,97.002,0.63383,supercritical,H2O,C7732185,water,647.0,220.64,17.9,0.0558659217877095,1.2,12.069887599709935,0.0004323924
776.4,2670.4,41428.0,2.4138e-05,33.567,40.013,72.748,47.833,73.391,1441.3,-0.003225,97.098,0.63458,supercritical,H2O,C7732185,water,647.0,220.64,17.9,0.0558659217877095,1.2,12.102973168963018,0.0004320702
776.4,2677.8,41458.0,2.4121e-05,33.556,40.015,72.727,47.837,73.353,1443.1,-0.0032932,97.195,0.63533,supercritical,H2O,C7732185,water,647.0,220.64,17.9,0.0558659217877095,1.2,12.13651196519217,0.0004317659
776.4,2685.1,41488.0,2.4103e-05,33.544,40.017,72.707,47.84,73.316,1444.9,-0.0033609,97.291,0.63608,supercritical,H2O,C7732185,water,647.0,220.64,17.9,0.0558659217877095,1.2,12.16959753444525,0.00043144369999999996
776.4,2692.5,41518.0,2.4086e-05,33.533,40.018,72.686,47.843,73.279,1446.6,-0.0034281,97.388,0.63682,supercritical,H2O,C7732185,water,647.0,220.64,17.9,0.0558659217877095,1.2,12.203136330674402,0.00043113939999999995
776.4,2699.8,41548.0,2.4069e-05,33.522,40.02,72.666,47.847,73.242,1448.4,-0.003495,97.484,0.63757,supercritical,H2O,C7732185,water,647.0,220.64,17.9,0.0558659217877095,1.2,12.236221899927486,0.00043083509999999994
776.4,2707.2,41577.0,2.4052e-05,33.511,40.022,72.646,47.85,73.206,1450.2,-0.0035614,97.579,0.63831,supercritical,H2O,C7732185,water,647.0,220.64,17.9,0.0558659217877095,1.2,12.269760696156634,0.0004305308
776.4,2714.5,41607.0,2.4034e-05,33.5,40.024,72.625,47.853,73.169,1451.9,-0.0036274,97.675,0.63905,supercritical,H2O,C7732185,water,647.0,220.64,17.9,0.0558659217877095,1.2,12.302846265409718,0.0004302086
776.4,2721.9,41636.0,2.4017e-05,33.489,40.026,72.605,47.857,73.133,1453.7,-0.0036929,97.77,0.6398,supercritical,H2O,C7732185,water,647.0,220.64,17.9,0.0558659217877095,1.2,12.33638506163887,0.0004299043
776.4,2729.2,41666.0,2.4e-05,33.478,40.028,72.585,47.86,73.097,1455.4,-0.0037581,97.866,0.64054,supercritical,H2O,C7732185,water,647.0,220.64,17.9,0.0558659217877095,1.2,12.36947063089195,0.0004296
776.4,2736.6,41695.0,2.3984e-05,33.467,40.03,72.565,47.864,73.061,1457.2,-0.0038228,97.961,0.64127,supercritical,H2O,C7732185,water,647.0,220.64,17.9,0.0558659217877095,1.2,12.403009427121102,0.00042931359999999995
776.4,2743.9,41725.0,2.3967e-05,33.456,40.032,72.545,47.867,73.026,1458.9,-0.0038872,98.055,0.64201,supercritical,H2O,C7732185,water,647.0,220.64,17.9,0.0558659217877095,1.2,12.436094996374186,0.00042900929999999994
776.4,2751.3,41754.0,2.395e-05,33.445,40.034,72.525,47.87,72.991,1460.7,-0.0039511,98.15,0.64275,supercritical,H2O,C7732185,water,647.0,220.64,17.9,0.0558659217877095,1.2,12.469633792603338,0.000428705
776.4,2758.6,41783.0,2.3933e-05,33.434,40.036,72.505,47.874,72.955,1462.4,-0.0040146,98.244,0.64349,supercritical,H2O,C7732185,water,647.0,220.64,17.9,0.0558659217877095,1.2,12.502719361856418,0.00042840069999999997
776.4,2766.0,41812.0,2.3917e-05,33.423,40.039,72.485,47.877,72.92,1464.2,-0.0040777,98.338,0.64422,supercritical,H2O,C7732185,water,647.0,220.64,17.9,0.0558659217877095,1.2,12.53625815808557,0.0004281143
776.4,2773.3,41841.0,2.39e-05,33.413,40.041,72.465,47.88,72.886,1465.9,-0.0041405,98.432,0.64496,supercritical,H2O,C7732185,water,647.0,220.64,17.9,0.0558659217877095,1.2,12.569343727338653,0.00042781
776.4,2780.7,41870.0,2.3884e-05,33.402,40.043,72.446,47.884,72.851,1467.6,-0.0042028,98.526,0.64569,supercritical,H2O,C7732185,water,647.0,220.64,17.9,0.0558659217877095,1.2,12.602882523567803,0.00042752359999999995
776.4,2788.0,41898.0,2.3867e-05,33.391,40.045,72.426,47.887,72.817,1469.4,-0.0042648,98.62,0.64642,supercritical,H2O,C7732185,water,647.0,220.64,17.9,0.0558659217877095,1.2,12.635968092820885,0.0004272193