Temperature (K),Pressure (bar),Density (mol/m3),Volume (m3/mol),Internal Energy (kJ/mol),Enthalpy (kJ/mol),Entropy (J/mol*K),Cv (J/mol*K),Cp (J/mol*K),Sound Spd. (m/s),Joule-Thomson (K/bar),Viscosity (uPa*s),Therm. Cond. (W/m*K),Phase,substance,substance_id,substance_name,Tc,Pc,rhoc,Vmc,Tr,Pr,Vmr
154.58,392.75,30078.0,3.3247e-05,-1.6093,-0.30352,117.46,26.59,50.646,731.85,-0.023444,94.744,0.11055,liquid,O2,C7782447,oxygen,154.58,50.43,13.6,0.07352941176470588,1.0,7.788023002181242,0.0004521592
154.58,394.12,30093.0,3.323e-05,-1.6116,-0.30189,117.44,26.595,50.619,732.69,-0.023538,94.89,0.11068,liquid,O2,C7782447,oxygen,154.58,50.43,13.6,0.07352941176470588,1.0,7.81518937140591,0.000451928
154.58,395.49,30108.0,3.3214e-05,-1.6138,-0.30026,117.42,26.6,50.592,733.53,-0.023631,95.036,0.11081,liquid,O2,C7782447,oxygen,154.58,50.43,13.6,0.07352941176470588,1.0,7.842355740630577,0.00045171039999999994
154.58,396.85,30123.0,3.3197e-05,-1.6161,-0.29863,117.4,26.606,50.565,734.37,-0.023723,95.182,0.11094,liquid,O2,C7782447,oxygen,154.58,50.43,13.6,0.07352941176470588,1.0,7.869323815189372,0.0004514792
154.58,398.21,30138.0,3.3181e-05,-1.6183,-0.29699,117.38,26.611,50.538,735.21,-0.023814,95.327,0.11107,liquid,O2,C7782447,oxygen,154.58,50.43,13.6,0.07352941176470588,1.0,7.8962918897481655,0.0004512616
154.58,399.58,30153.0,3.3164e-05,-1.6205,-0.29534,117.37,26.616,50.512,736.04,-0.023905,95.473,0.1112,liquid,O2,C7782447,oxygen,154.58,50.43,13.6,0.07352941176470588,1.0,7.9234582589728335,0.0004510304
154.58,400.94,30168.0,3.3148e-05,-1.6227,-0.29369,117.35,26.622,50.486,736.87,-0.023996,95.618,0.11133,liquid,O2,C7782447,oxygen,154.58,50.43,13.6,0.07352941176470588,1.0,7.950426333531628,0.00045081280000000004
154.58,402.31,30183.0,3.3131e-05,-1.6249,-0.29204,117.33,26.627,50.459,737.7,-0.024086,95.763,0.11146,liquid,O2,C7782447,oxygen,154.58,50.43,13.6,0.07352941176470588,1.0,7.977592702756296,0.00045058159999999996
154.58,403.68,30198.0,3.3115e-05,-1.6271,-0.29038,117.31,26.632,50.433,738.53,-0.024175,95.908,0.11158,liquid,O2,C7782447,oxygen,154.58,50.43,13.6,0.07352941176470588,1.0,8.004759071980963,0.00045036399999999997
154.58,405.04,30213.0,3.3099e-05,-1.6293,-0.28871,117.29,26.638,50.408,739.36,-0.024263,96.053,0.11171,liquid,O2,C7782447,oxygen,154.58,50.43,13.6,0.07352941176470588,1.0,8.031727146539758,0.00045014640000000004
154.58,406.4,30227.0,3.3083e-05,-1.6315,-0.28704,117.27,26.643,50.382,740.18,-0.024352,96.198,0.11184,liquid,O2,C7782447,oxygen,154.58,50.43,13.6,0.07352941176470588,1.0,8.058695221098551,0.0004499288
154.58,407.77,30242.0,3.3067e-05,-1.6337,-0.28536,117.25,26.648,50.356,741.0,-0.024439,96.343,0.11197,liquid,O2,C7782447,oxygen,154.58,50.43,13.6,0.07352941176470588,1.0,8.08586159032322,0.0004497112
154.58,409.13,30257.0,3.3051e-05,-1.6359,-0.28368,117.24,26.653,50.331,741.82,-0.024526,96.487,0.11209,liquid,O2,C7782447,oxygen,154.58,50.43,13.6,0.07352941176470588,1.0,8.112829664882014,0.00044949359999999996
154.58,410.5,30271.0,3.3035e-05,-1.6381,-0.28199,117.22,26.659,50.306,742.64,-0.024613,96.632,0.11222,liquid,O2,C7782447,oxygen,154.58,50.43,13.6,0.07352941176470588,1.0,8.139996034106682,0.00044927599999999997
154.58,411.87,30286.0,3.3019e-05,-1.6402,-0.2803,117.2,26.664,50.281,743.46,-0.024699,96.776,0.11235,liquid,O2,C7782447,oxygen,154.58,50.43,13.6,0.07352941176470588,1.0,8.16716240333135,0.00044905839999999993
154.58,413.23,30300.0,3.3003e-05,-1.6424,-0.2786,117.18,26.669,50.256,744.27,-0.024784,96.92,0.11247,liquid,O2,C7782447,oxygen,154.58,50.43,13.6,0.07352941176470588,1.0,8.194130477890145,0.0004488408
154.58,414.6,30315.0,3.2987e-05,-1.6445,-0.2769,117.16,26.674,50.231,745.09,-0.024869,97.064,0.1126,liquid,O2,C7782447,oxygen,154.58,50.43,13.6,0.07352941176470588,1.0,8.221296847114813,0.0004486232
154.58,415.96,30329.0,3.2971e-05,-1.6467,-0.27519,117.15,26.679,50.207,745.9,-0.024953,97.208,0.11272,liquid,O2,C7782447,oxygen,154.58,50.43,13.6,0.07352941176470588,1.0,8.248264921673607,0.00044840559999999996
154.58,417.32,30344.0,3.2956e-05,-1.6488,-0.27348,117.13,26.685,50.182,746.71,-0.025037,97.351,0.11285,liquid,O2,C7782447,oxygen,154.58,50.43,13.6,0.07352941176470588,1.0,8.2752329962324,0.0004482016
154.58,418.69,30358.0,3.294e-05,-1.6509,-0.27176,117.11,26.69,50.158,747.51,-0.02512,97.495,0.11298,liquid,O2,C7782447,oxygen,154.58,50.43,13.6,0.07352941176470588,1.0,8.302399365457068,0.00044798399999999996
154.58,420.06,30372.0,3.2925e-05,-1.6531,-0.27004,117.09,26.695,50.134,748.32,-0.025203,97.638,0.1131,liquid,O2,C7782447,oxygen,154.58,50.43,13.6,0.07352941176470588,1.0,8.329565734681736,0.00044778
154.58,421.42,30387.0,3.2909e-05,-1.6552,-0.26831,117.07,26.7,50.11,749.12,-0.025286,97.782,0.11323,liquid,O2,C7782447,oxygen,154.58,50.43,13.6,0.07352941176470588,1.0,8.356533809240531,0.00044756239999999996
154.58,422.79,30401.0,3.2894e-05,-1.6573,-0.26658,117.06,26.705,50.086,749.92,-0.025367,97.925,0.11335,liquid,O2,C7782447,oxygen,154.58,50.43,13.6,0.07352941176470588,1.0,8.3837001784652,0.0004473584
154.58,424.15,30415.0,3.2878e-05,-1.6594,-0.26484,117.04,26.711,50.063,750.72,-0.025449,98.068,0.11348,liquid,O2,C7782447,oxygen,154.58,50.43,13.6,0.07352941176470588,1.0,8.410668253023994,0.00044714079999999995
154.58,425.51,30429.0,3.2863e-05,-1.6615,-0.2631,117.02,26.716,50.039,751.52,-0.025529,98.211,0.1136,liquid,O2,C7782447,oxygen,154.58,50.43,13.6,0.07352941176470588,1.0,8.437636327582787,0.0004469368
154.58,426.88,30443.0,3.2848e-05,-1.6636,-0.26135,117.0,26.721,50.016,752.31,-0.02561,98.354,0.11373,liquid,O2,C7782447,oxygen,154.58,50.43,13.6,0.07352941176470588,1.0,8.464802696807455,0.0004467328
154.58,428.25,30458.0,3.2833e-05,-1.6656,-0.2596,116.98,26.726,49.993,753.11,-0.02569,98.496,0.11385,liquid,O2,C7782447,oxygen,154.58,50.43,13.6,0.07352941176470588,1.0,8.491969066032123,0.0004465288
154.58,429.61,30472.0,3.2817e-05,-1.6677,-0.25785,116.97,26.731,49.969,753.9,-0.025769,98.639,0.11397,liquid,O2,C7782447,oxygen,154.58,50.43,13.6,0.07352941176470588,1.0,8.518937140590918,0.0004463112
154.58,430.98,30486.0,3.2802e-05,-1.6698,-0.25609,116.95,26.736,49.947,754.69,-0.025848,98.781,0.1141,liquid,O2,C7782447,oxygen,154.58,50.43,13.6,0.07352941176470588,1.0,8.546103509815586,0.0004461072
154.58,432.34,30500.0,3.2787e-05,-1.6719,-0.25432,116.93,26.741,49.924,755.48,-0.025926,98.923,0.11422,liquid,O2,C7782447,oxygen,154.58,50.43,13.6,0.07352941176470588,1.0,8.57307158437438,0.0004459032
154.58,433.7,30513.0,3.2772e-05,-1.6739,-0.25255,116.91,26.747,49.901,756.27,-0.026004,99.065,0.11434,liquid,O2,C7782447,oxygen,154.58,50.43,13.6,0.07352941176470588,1.0,8.600039658933175,0.00044569919999999994
154.58,435.07,30527.0,3.2757e-05,-1.676,-0.25078,116.9,26.752,49.878,757.05,-0.026082,99.207,0.11447,liquid,O2,C7782447,oxygen,154.58,50.43,13.6,0.07352941176470588,1.0,8.627206028157843,0.0004454952
154.58,436.44,30541.0,3.2743e-05,-1.678,-0.249,116.88,26.757,49.856,757.84,-0.026159,99.349,0.11459,liquid,O2,C7782447,oxygen,154.58,50.43,13.6,0.07352941176470588,1.0,8.654372397382511,0.0004453048
154.58,437.8,30555.0,3.2728e-05,-1.68,-0.24722,116.86,26.762,49.834,758.62,-0.026235,99.491,0.11471,liquid,O2,C7782447,oxygen,154.58,50.43,13.6,0.07352941176470588,1.0,8.681340471941304,0.00044510080000000003
154.58,439.17,30569.0,3.2713e-05,-1.6821,-0.24543,116.84,26.767,49.812,759.4,-0.026311,99.633,0.11484,liquid,O2,C7782447,oxygen,154.58,50.43,13.6,0.07352941176470588,1.0,8.708506841165972,0.00044489679999999997
154.58,440.53,30583.0,3.2698e-05,-1.6841,-0.24364,116.83,26.772,49.79,760.18,-0.026387,99.774,0.11496,liquid,O2,C7782447,oxygen,154.58,50.43,13.6,0.07352941176470588,1.0,8.735474915724767,0.00044469279999999995
154.58,441.89,30596.0,3.2684e-05,-1.6861,-0.24185,116.81,26.777,49.768,760.95,-0.026462,99.916,0.11508,liquid,O2,C7782447,oxygen,154.58,50.43,13.6,0.07352941176470588,1.0,8.762442990283562,0.0004445024
154.58,443.26,30610.0,3.2669e-05,-1.6881,-0.24005,116.79,26.782,49.746,761.73,-0.026537,100.06,0.1152,liquid,O2,C7782447,oxygen,154.58,50.43,13.6,0.07352941176470588,1.0,8.78960935950823,0.0004442984
154.58,444.62,30624.0,3.2655e-05,-1.6901,-0.23824,116.78,26.787,49.724,762.5,-0.026611,100.2,0.11532,liquid,O2,C7782447,oxygen,154.58,50.43,13.6,0.07352941176470588,1.0,8.816577434067023,0.00044410799999999997
154.58,445.99,30637.0,3.264e-05,-1.6921,-0.23643,116.76,26.792,49.703,763.27,-0.026685,100.34,0.11545,liquid,O2,C7782447,oxygen,154.58,50.43,13.6,0.07352941176470588,1.0,8.84374380329169,0.00044390399999999996
154.58,447.36,30651.0,3.2626e-05,-1.6941,-0.23462,116.74,26.797,49.682,764.04,-0.026758,100.48,0.11557,liquid,O2,C7782447,oxygen,154.58,50.43,13.6,0.07352941176470588,1.0,8.870910172516359,0.0004437136
154.58,448.72,30664.0,3.2611e-05,-1.6961,-0.2328,116.72,26.802,49.66,764.81,-0.026832,100.62,0.11569,liquid,O2,C7782447,oxygen,154.58,50.43,13.6,0.07352941176470588,1.0,8.897878247075154,0.0004435096
154.58,450.08,30678.0,3.2597e-05,-1.6981,-0.23098,116.71,26.808,49.639,765.58,-0.026904,100.76,0.11581,liquid,O2,C7782447,oxygen,154.58,50.43,13.6,0.07352941176470588,1.0,8.924846321633948,0.0004433192
154.58,451.45,30691.0,3.2583e-05,-1.7001,-0.22916,116.69,26.813,49.618,766.35,-0.026976,100.9,0.11593,liquid,O2,C7782447,oxygen,154.58,50.43,13.6,0.07352941176470588,1.0,8.952012690858616,0.00044312880000000005
154.58,452.81,30705.0,3.2568e-05,-1.7021,-0.22733,116.67,26.818,49.597,767.11,-0.027048,101.04,0.11605,liquid,O2,C7782447,oxygen,154.58,50.43,13.6,0.07352941176470588,1.0,8.978980765417411,0.0004429247999999999
154.58,454.18,30718.0,3.2554e-05,-1.704,-0.2255,116.66,26.823,49.577,767.87,-0.027119,101.18,0.11617,liquid,O2,C7782447,oxygen,154.58,50.43,13.6,0.07352941176470588,1.0,9.00614713464208,0.0004427344
154.58,455.55,30731.0,3.254e-05,-1.706,-0.22366,116.64,26.828,49.556,768.63,-0.02719,101.32,0.11629,liquid,O2,C7782447,oxygen,154.58,50.43,13.6,0.07352941176470588,1.0,9.033313503866747,0.00044254399999999996
154.58,456.91,30745.0,3.2526e-05,-1.708,-0.22182,116.62,26.833,49.535,769.39,-0.027261,101.46,0.11641,liquid,O2,C7782447,oxygen,154.58,50.43,13.6,0.07352941176470588,1.0,9.06028157842554,0.00044235359999999997
154.58,458.27,30758.0,3.2512e-05,-1.7099,-0.21997,116.61,26.838,49.515,770.15,-0.027331,101.6,0.11653,liquid,O2,C7782447,oxygen,154.58,50.43,13.6,0.07352941176470588,1.0,9.087249652984335,0.00044216320000000004
154.58,459.64,30771.0,3.2498e-05,-1.7119,-0.21812,116.59,26.843,49.495,770.9,-0.027401,101.74,0.11665,liquid,O2,C7782447,oxygen,154.58,50.43,13.6,0.07352941176470588,1.0,9.114416022209003,0.0004419728
154.58,461.0,30785.0,3.2484e-05,-1.7138,-0.21627,116.57,26.848,49.474,771.66,-0.02747,101.88,0.11677,liquid,O2,C7782447,oxygen,154.58,50.43,13.6,0.07352941176470588,1.0,9.141384096767798,0.0004417824
154.58,462.37,30798.0,3.247e-05,-1.7157,-0.21441,116.56,26.852,49.454,772.41,-0.027539,102.02,0.11689,liquid,O2,C7782447,oxygen,154.58,50.43,13.6,0.07352941176470588,1.0,9.168550465992466,0.000441592
154.58,463.74,30811.0,3.2456e-05,-1.7177,-0.21255,116.54,26.857,49.434,773.16,-0.027608,102.16,0.11701,liquid,O2,C7782447,oxygen,154.58,50.43,13.6,0.07352941176470588,1.0,9.195716835217134,0.0004414016
154.58,465.1,30824.0,3.2442e-05,-1.7196,-0.21069,116.52,26.862,49.415,773.91,-0.027676,102.3,0.11713,liquid,O2,C7782447,oxygen,154.58,50.43,13.6,0.07352941176470588,1.0,9.222684909775927,0.00044121119999999996
154.58,466.46,30837.0,3.2429e-05,-1.7215,-0.20882,116.51,26.867,49.395,774.66,-0.027744,102.44,0.11725,liquid,O2,C7782447,oxygen,154.58,50.43,13.6,0.07352941176470588,1.0,9.249652984334721,0.00044103439999999995
154.58,467.83,30850.0,3.2415e-05,-1.7234,-0.20695,116.49,26.872,49.375,775.41,-0.027811,102.58,0.11737,liquid,O2,C7782447,oxygen,154.58,50.43,13.6,0.07352941176470588,1.0,9.27681935355939,0.00044084399999999997
154.58,469.19,30863.0,3.2401e-05,-1.7253,-0.20507,116.47,26.877,49.356,776.15,-0.027878,102.72,0.11749,liquid,O2,C7782447,oxygen,154.58,50.43,13.6,0.07352941176470588,1.0,9.303787428118184,0.00044065359999999993
154.58,470.56,30876.0,3.2388e-05,-1.7272,-0.20319,116.46,26.882,49.336,776.9,-0.027945,102.86,0.1176,liquid,O2,C7782447,oxygen,154.58,50.43,13.6,0.07352941176470588,1.0,9.330953797342852,0.00044047680000000003
154.58,471.93,30889.0,3.2374e-05,-1.7291,-0.20131,116.44,26.887,49.317,777.64,-0.028011,103.0,0.11772,liquid,O2,C7782447,oxygen,154.58,50.43,13.6,0.07352941176470588,1.0,9.35812016656752,0.0004402864
154.58,473.29,30902.0,3.236e-05,-1.731,-0.19942,116.42,26.892,49.298,778.38,-0.028077,103.14,0.11784,liquid,O2,C7782447,oxygen,154.58,50.43,13.6,0.07352941176470588,1.0,9.385088241126315,0.000440096
154.58,474.65,30915.0,3.2347e-05,-1.7329,-0.19753,116.41,26.897,49.279,779.12,-0.028143,103.27,0.11796,liquid,O2,C7782447,oxygen,154.58,50.43,13.6,0.07352941176470588,1.0,9.412056315685108,0.0004399192
154.58,476.02,30928.0,3.2333e-05,-1.7348,-0.19563,116.39,26.902,49.26,779.86,-0.028208,103.41,0.11808,liquid,O2,C7782447,oxygen,154.58,50.43,13.6,0.07352941176470588,1.0,9.439222684909776,0.00043972879999999996
154.58,477.38,30941.0,3.232e-05,-1.7366,-0.19373,116.38,26.907,49.241,780.6,-0.028273,103.55,0.11819,liquid,O2,C7782447,oxygen,154.58,50.43,13.6,0.07352941176470588,1.0,9.46619075946857,0.000439552
154.58,478.75,30953.0,3.2307e-05,-1.7385,-0.19183,116.36,26.912,49.222,781.33,-0.028338,103.69,0.11831,liquid,O2,C7782447,oxygen,154.58,50.43,13.6,0.07352941176470588,1.0,9.493357128693239,0.0004393752
154.58,480.12,30966.0,3.2293e-05,-1.7404,-0.18993,116.34,26.916,49.203,782.06,-0.028402,103.83,0.11843,liquid,O2,C7782447,oxygen,154.58,50.43,13.6,0.07352941176470588,1.0,9.520523497917907,0.00043918479999999996
154.58,481.48,30979.0,3.228e-05,-1.7422,-0.18802,116.33,26.921,49.185,782.8,-0.028466,103.97,0.11855,liquid,O2,C7782447,oxygen,154.58,50.43,13.6,0.07352941176470588,1.0,9.547491572476702,0.000439008
154.58,482.85,30992.0,3.2267e-05,-1.7441,-0.1861,116.31,26.926,49.166,783.53,-0.028529,104.1,0.11866,liquid,O2,C7782447,oxygen,154.58,50.43,13.6,0.07352941176470588,1.0,9.57465794170137,0.0004388312
154.58,484.21,31004.0,3.2254e-05,-1.7459,-0.18419,116.29,26.931,49.148,784.26,-0.028592,104.24,0.11878,liquid,O2,C7782447,oxygen,154.58,50.43,13.6,0.07352941176470588,1.0,9.601626016260163,0.0004386544
154.58,485.57,31017.0,3.2241e-05,-1.7478,-0.18227,116.28,26.936,49.13,784.99,-0.028655,104.38,0.1189,liquid,O2,C7782447,oxygen,154.58,50.43,13.6,0.07352941176470588,1.0,9.628594090818957,0.0004384776
154.58,486.94,31029.0,3.2227e-05,-1.7496,-0.18034,116.26,26.941,49.111,785.71,-0.028717,104.52,0.11901,liquid,O2,C7782447,oxygen,154.58,50.43,13.6,0.07352941176470588,1.0,9.655760460043625,0.0004382872
154.58,488.31,31042.0,3.2214e-05,-1.7515,-0.17842,116.25,26.945,49.093,786.44,-0.02878,104.66,0.11913,liquid,O2,C7782447,oxygen,154.58,50.43,13.6,0.07352941176470588,1.0,9.682926829268293,0.0004381104
154.58,489.67,31055.0,3.2201e-05,-1.7533,-0.17649,116.23,26.95,49.075,787.16,-0.028841,104.79,0.11924,liquid,O2,C7782447,oxygen,154.58,50.43,13.6,0.07352941176470588,1.0,9.709894903827088,0.0004379336
154.58,491.04,31067.0,3.2188e-05,-1.7551,-0.17455,116.21,26.955,49.057,787.88,-0.028903,104.93,0.11936,liquid,O2,C7782447,oxygen,154.58,50.43,13.6,0.07352941176470588,1.0,9.737061273051756,0.0004377568
154.58,492.4,31080.0,3.2175e-05,-1.7569,-0.17262,116.2,26.96,49.04,788.61,-0.028964,105.07,0.11948,liquid,O2,C7782447,oxygen,154.58,50.43,13.6,0.07352941176470588,1.0,9.764029347610549,0.00043758
154.58,493.76,31092.0,3.2163e-05,-1.7587,-0.17068,116.18,26.965,49.022,789.33,-0.029025,105.21,0.11959,liquid,O2,C7782447,oxygen,154.58,50.43,13.6,0.07352941176470588,1.0,9.790997422169344,0.00043741679999999994
154.58,495.13,31105.0,3.215e-05,-1.7606,-0.16873,116.17,26.969,49.004,790.04,-0.029085,105.34,0.11971,liquid,O2,C7782447,oxygen,154.58,50.43,13.6,0.07352941176470588,1.0,9.818163791394012,0.00043724000000000004
154.58,496.5,31117.0,3.2137e-05,-1.7624,-0.16678,116.15,26.974,48.987,790.76,-0.029145,105.48,0.11982,liquid,O2,C7782447,oxygen,154.58,50.43,13.6,0.07352941176470588,1.0,9.84533016061868,0.0004370632
154.58,497.86,31129.0,3.2124e-05,-1.7642,-0.16483,116.14,26.979,48.969,791.48,-0.029205,105.62,0.11994,liquid,O2,C7782447,oxygen,154.58,50.43,13.6,0.07352941176470588,1.0,9.872298235177475,0.00043688639999999996
154.58,499.23,31142.0,3.2111e-05,-1.766,-0.16288,116.12,26.984,48.952,792.19,-0.029265,105.75,0.12005,liquid,O2,C7782447,oxygen,154.58,50.43,13.6,0.07352941176470588,1.0,9.899464604402143,0.00043670959999999996
154.58,500.59,31154.0,3.2099e-05,-1.7677,-0.16092,116.1,26.989,48.935,792.91,-0.029324,105.89,0.12017,liquid,O2,C7782447,oxygen,154.58,50.43,13.6,0.07352941176470588,1.0,9.926432678960936,0.0004365464
154.58,501.95,31166.0,3.2086e-05,-1.7695,-0.15896,116.09,26.993,48.918,793.62,-0.029383,106.03,0.12028,liquid,O2,C7782447,oxygen,154.58,50.43,13.6,0.07352941176470588,1.0,9.95340075351973,0.00043636959999999997
154.58,503.32,31179.0,3.2073e-05,-1.7713,-0.157,116.07,26.998,48.901,794.33,-0.029441,106.16,0.1204,liquid,O2,C7782447,oxygen,154.58,50.43,13.6,0.07352941176470588,1.0,9.980567122744398,0.0004361928
154.58,504.69,31191.0,3.2061e-05,-1.7731,-0.15503,116.06,27.003,48.884,795.04,-0.0295,106.3,0.12051,liquid,O2,C7782447,oxygen,154.58,50.43,13.6,0.07352941176470588,1.0,10.007733491969066,0.00043602959999999993
154.58,506.05,31203.0,3.2048e-05,-1.7749,-0.15306,116.04,27.008,48.867,795.75,-0.029558,106.44,0.12062,liquid,O2,C7782447,oxygen,154.58,50.43,13.6,0.07352941176470588,1.0,10.034701566527861,0.00043585280000000003
154.58,507.42,31215.0,3.2036e-05,-1.7766,-0.15109,116.03,27.012,48.85,796.45,-0.029615,106.57,0.12074,liquid,O2,C7782447,oxygen,154.58,50.43,13.6,0.07352941176470588,1.0,10.06186793575253,0.00043568960000000005
154.58,508.78,31227.0,3.2023e-05,-1.7784,-0.14911,116.01,27.017,48.833,797.16,-0.029673,106.71,0.12085,liquid,O2,C7782447,oxygen,154.58,50.43,13.6,0.07352941176470588,1.0,10.088836010311322,0.0004355128
154.58,510.14,31239.0,3.2011e-05,-1.7802,-0.14713,116.0,27.022,48.817,797.86,-0.02973,106.85,0.12097,liquid,O2,C7782447,oxygen,154.58,50.43,13.6,0.07352941176470588,1.0,10.115804084870117,0.0004353496
154.58,511.51,31251.0,3.1998e-05,-1.7819,-0.14515,115.98,27.026,48.8,798.57,-0.029787,106.98,0.12108,liquid,O2,C7782447,oxygen,154.58,50.43,13.6,0.07352941176470588,1.0,10.142970454094785,0.0004351728
154.58,512.88,31264.0,3.1986e-05,-1.7837,-0.14317,115.96,27.031,48.784,799.27,-0.029843,107.12,0.12119,liquid,O2,C7782447,oxygen,154.58,50.43,13.6,0.07352941176470588,1.0,10.170136823319453,0.0004350096
154.58,514.24,31276.0,3.1974e-05,-1.7854,-0.14118,115.95,27.036,48.767,799.97,-0.029899,107.25,0.12131,liquid,O2,C7782447,oxygen,154.58,50.43,13.6,0.07352941176470588,1.0,10.197104897878248,0.00043484640000000005
154.58,515.61,31288.0,3.1962e-05,-1.7871,-0.13918,115.93,27.04,48.751,800.67,-0.029955,107.39,0.12142,liquid,O2,C7782447,oxygen,154.58,50.43,13.6,0.07352941176470588,1.0,10.224271267102916,0.0004346832
154.58,516.97,31300.0,3.1949e-05,-1.7889,-0.13719,115.92,27.045,48.735,801.37,-0.030011,107.52,0.12153,liquid,O2,C7782447,oxygen,154.58,50.43,13.6,0.07352941176470588,1.0,10.25123934166171,0.0004345064
154.58,518.34,31312.0,3.1937e-05,-1.7906,-0.13519,115.9,27.05,48.719,802.06,-0.030066,107.66,0.12164,liquid,O2,C7782447,oxygen,154.58,50.43,13.6,0.07352941176470588,1.0,10.278405710886378,0.0004343432
154.58,519.7,31323.0,3.1925e-05,-1.7923,-0.13319,115.89,27.054,48.702,802.76,-0.030121,107.8,0.12176,liquid,O2,C7782447,oxygen,154.58,50.43,13.6,0.07352941176470588,1.0,10.305373785445173,0.00043417999999999994
154.58,521.07,31335.0,3.1913e-05,-1.7941,-0.13119,115.87,27.059,48.686,803.46,-0.030176,107.93,0.12187,liquid,O2,C7782447,oxygen,154.58,50.43,13.6,0.07352941176470588,1.0,10.332540154669841,0.00043401679999999996
154.58,522.43,31347.0,3.1901e-05,-1.7958,-0.12918,115.86,27.064,48.671,804.15,-0.03023,108.07,0.12198,liquid,O2,C7782447,oxygen,154.58,50.43,13.6,0.07352941176470588,1.0,10.359508229228632,0.0004338536