Temperature (K),Pressure (bar),Density (mol/m3),Volume (m3/mol),Internal Energy (kJ/mol),Enthalpy (kJ/mol),Entropy (J/mol*K),Cv (J/mol*K),Cp (J/mol*K),Sound Spd. (m/s),Joule-Thomson (K/bar),Viscosity (uPa*s),Therm. Cond. (W/m*K),Phase,substance,substance_id,substance_name,Tc,Pc,rhoc,Vmc,Tr,Pr,Vmr
547.52,453.33,9891.2,0.0001011,24.271,28.854,88.778,40.641,62.636,452.26,0.070363,41.098,0.061012,supercritical,CO2,C124389,carbon-dioxide,304.18,73.8,10.6,0.09433962264150944,1.8,6.142682926829268,0.0010716599999999999
547.52,455.79,9933.2,0.00010067,24.255,28.844,88.713,40.648,62.666,453.27,0.069669,41.223,0.061167,supercritical,CO2,C124389,carbon-dioxide,304.18,73.8,10.6,0.09433962264150944,1.8,6.176016260162602,0.001067102
547.52,458.25,9975.0,0.00010025,24.239,28.833,88.648,40.656,62.696,454.29,0.068981,41.348,0.061322,supercritical,CO2,C124389,carbon-dioxide,304.18,73.8,10.6,0.09433962264150944,1.8,6.2093495934959355,0.0010626499999999998
547.52,460.71,10017.0,9.9834e-05,24.223,28.822,88.584,40.664,62.725,455.3,0.068297,41.473,0.061477,supercritical,CO2,C124389,carbon-dioxide,304.18,73.8,10.6,0.09433962264150944,1.8,6.242682926829268,0.0010582404
547.52,463.17,10058.0,9.9422e-05,24.207,28.812,88.52,40.671,62.754,456.31,0.067619,41.599,0.061632,supercritical,CO2,C124389,carbon-dioxide,304.18,73.8,10.6,0.09433962264150944,1.8,6.276016260162602,0.0010538732
547.52,465.63,10099.0,9.9015e-05,24.191,28.801,88.456,40.679,62.782,457.33,0.066946,41.725,0.061786,supercritical,CO2,C124389,carbon-dioxide,304.18,73.8,10.6,0.09433962264150944,1.8,6.309349593495935,0.0010495589999999998
547.52,468.08,10141.0,9.8614e-05,24.175,28.791,88.393,40.686,62.809,458.35,0.066278,41.85,0.061941,supercritical,CO2,C124389,carbon-dioxide,304.18,73.8,10.6,0.09433962264150944,1.8,6.342547425474255,0.0010453084
547.52,470.54,10182.0,9.8217e-05,24.159,28.781,88.33,40.693,62.836,459.37,0.065615,41.976,0.062095,supercritical,CO2,C124389,carbon-dioxide,304.18,73.8,10.6,0.09433962264150944,1.8,6.375880758807589,0.0010411002
547.52,473.0,10222.0,9.7825e-05,24.144,28.771,88.268,40.701,62.863,460.39,0.064958,42.102,0.062248,supercritical,CO2,C124389,carbon-dioxide,304.18,73.8,10.6,0.09433962264150944,1.8,6.409214092140922,0.001036945
547.52,475.46,10263.0,9.7438e-05,24.128,28.761,88.206,40.708,62.889,461.41,0.064305,42.229,0.062402,supercritical,CO2,C124389,carbon-dioxide,304.18,73.8,10.6,0.09433962264150944,1.8,6.442547425474254,0.0010328427999999998
547.52,477.92,10303.0,9.7055e-05,24.113,28.751,88.144,40.715,62.914,462.44,0.063657,42.355,0.062555,supercritical,CO2,C124389,carbon-dioxide,304.18,73.8,10.6,0.09433962264150944,1.8,6.475880758807588,0.001028783
547.52,480.38,10344.0,9.6677e-05,24.097,28.741,88.083,40.723,62.939,463.46,0.063014,42.481,0.062708,supercritical,CO2,C124389,carbon-dioxide,304.18,73.8,10.6,0.09433962264150944,1.8,6.509214092140922,0.0010247761999999999
547.52,482.83,10384.0,9.6304e-05,24.082,28.731,88.022,40.73,62.964,464.49,0.062376,42.608,0.062861,supercritical,CO2,C124389,carbon-dioxide,304.18,73.8,10.6,0.09433962264150944,1.8,6.542411924119241,0.0010208224
547.52,485.29,10424.0,9.5935e-05,24.066,28.722,87.961,40.737,62.988,465.52,0.061743,42.734,0.063013,supercritical,CO2,C124389,carbon-dioxide,304.18,73.8,10.6,0.09433962264150944,1.8,6.575745257452575,0.001016911
547.52,487.75,10463.0,9.557e-05,24.051,28.712,87.901,40.744,63.011,466.55,0.061115,42.861,0.063165,supercritical,CO2,C124389,carbon-dioxide,304.18,73.8,10.6,0.09433962264150944,1.8,6.609078590785908,0.0010130419999999998
547.52,490.21,10503.0,9.521e-05,24.036,28.703,87.841,40.751,63.034,467.58,0.060491,42.988,0.063317,supercritical,CO2,C124389,carbon-dioxide,304.18,73.8,10.6,0.09433962264150944,1.8,6.642411924119241,0.001009226
547.52,492.67,10543.0,9.4854e-05,24.02,28.694,87.781,40.758,63.057,468.61,0.059872,43.115,0.063469,supercritical,CO2,C124389,carbon-dioxide,304.18,73.8,10.6,0.09433962264150944,1.8,6.675745257452575,0.0010054524
547.52,495.13,10582.0,9.4502e-05,24.005,28.684,87.722,40.765,63.079,469.65,0.059258,43.242,0.06362,supercritical,CO2,C124389,carbon-dioxide,304.18,73.8,10.6,0.09433962264150944,1.8,6.709078590785908,0.0010017212
547.52,497.58,10621.0,9.4154e-05,23.99,28.675,87.663,40.772,63.101,470.68,0.058649,43.369,0.063771,supercritical,CO2,C124389,carbon-dioxide,304.18,73.8,10.6,0.09433962264150944,1.8,6.742276422764228,0.0009980324
547.52,500.04,10660.0,9.381e-05,23.975,28.666,87.604,40.779,63.122,471.72,0.058044,43.496,0.063922,supercritical,CO2,C124389,carbon-dioxide,304.18,73.8,10.6,0.09433962264150944,1.8,6.775609756097562,0.0009943859999999999
547.52,502.5,10699.0,9.347e-05,23.96,28.657,87.545,40.786,63.143,472.75,0.057444,43.623,0.064072,supercritical,CO2,C124389,carbon-dioxide,304.18,73.8,10.6,0.09433962264150944,1.8,6.808943089430895,0.000990782
547.52,504.96,10737.0,9.3134e-05,23.945,28.648,87.487,40.792,63.163,473.79,0.056848,43.751,0.064223,supercritical,CO2,C124389,carbon-dioxide,304.18,73.8,10.6,0.09433962264150944,1.8,6.842276422764227,0.0009872204
547.52,507.42,10776.0,9.2802e-05,23.931,28.64,87.43,40.799,63.183,474.83,0.056257,43.878,0.064372,supercritical,CO2,C124389,carbon-dioxide,304.18,73.8,10.6,0.09433962264150944,1.8,6.875609756097561,0.0009837011999999999
547.52,509.88,10814.0,9.2473e-05,23.916,28.631,87.372,40.806,63.202,475.87,0.05567,44.006,0.064522,supercritical,CO2,C124389,carbon-dioxide,304.18,73.8,10.6,0.09433962264150944,1.8,6.9089430894308945,0.0009802137999999998
547.52,512.33,10852.0,9.2148e-05,23.901,28.622,87.315,40.813,63.221,476.91,0.055088,44.133,0.064672,supercritical,CO2,C124389,carbon-dioxide,304.18,73.8,10.6,0.09433962264150944,1.8,6.942140921409215,0.0009767687999999999
547.52,514.79,10890.0,9.1827e-05,23.887,28.614,87.258,40.819,63.24,477.95,0.05451,44.261,0.064821,supercritical,CO2,C124389,carbon-dioxide,304.18,73.8,10.6,0.09433962264150944,1.8,6.975474254742547,0.0009733661999999999
547.52,517.25,10928.0,9.1509e-05,23.872,28.605,87.201,40.826,63.258,478.99,0.053937,44.388,0.064969,supercritical,CO2,C124389,carbon-dioxide,304.18,73.8,10.6,0.09433962264150944,1.8,7.008807588075881,0.0009699953999999999
547.52,519.71,10966.0,9.1195e-05,23.857,28.597,87.145,40.832,63.276,480.04,0.053368,44.516,0.065118,supercritical,CO2,C124389,carbon-dioxide,304.18,73.8,10.6,0.09433962264150944,1.8,7.0421409214092145,0.0009666669999999999
547.52,522.17,11003.0,9.0884e-05,23.843,28.589,87.089,40.839,63.293,481.08,0.052803,44.644,0.065266,supercritical,CO2,C124389,carbon-dioxide,304.18,73.8,10.6,0.09433962264150944,1.8,7.075474254742547,0.0009633704
547.52,524.63,11040.0,9.0577e-05,23.829,28.581,87.034,40.845,63.31,482.12,0.052242,44.771,0.065414,supercritical,CO2,C124389,carbon-dioxide,304.18,73.8,10.6,0.09433962264150944,1.8,7.108807588075881,0.0009601161999999999
547.52,527.08,11077.0,9.0273e-05,23.814,28.572,86.978,40.852,63.326,483.17,0.051686,44.899,0.065562,supercritical,CO2,C124389,carbon-dioxide,304.18,73.8,10.6,0.09433962264150944,1.8,7.142005420054201,0.0009568937999999998
547.52,529.54,11114.0,8.9973e-05,23.8,28.564,86.923,40.858,63.342,484.21,0.051134,45.027,0.065709,supercritical,CO2,C124389,carbon-dioxide,304.18,73.8,10.6,0.09433962264150944,1.8,7.175338753387534,0.0009537138
547.52,532.0,11151.0,8.9675e-05,23.786,28.557,86.868,40.865,63.358,485.26,0.050586,45.155,0.065856,supercritical,CO2,C124389,carbon-dioxide,304.18,73.8,10.6,0.09433962264150944,1.8,7.208672086720868,0.000950555
547.52,534.46,11188.0,8.9381e-05,23.772,28.549,86.814,40.871,63.374,486.31,0.050043,45.283,0.066003,supercritical,CO2,C124389,carbon-dioxide,304.18,73.8,10.6,0.09433962264150944,1.8,7.242005420054201,0.0009474386
547.52,536.92,11225.0,8.909e-05,23.758,28.541,86.76,40.877,63.389,487.35,0.049503,45.411,0.066149,supercritical,CO2,C124389,carbon-dioxide,304.18,73.8,10.6,0.09433962264150944,1.8,7.275338753387533,0.000944354
547.52,539.38,11261.0,8.8802e-05,23.743,28.533,86.706,40.884,63.403,488.4,0.048967,45.539,0.066296,supercritical,CO2,C124389,carbon-dioxide,304.18,73.8,10.6,0.09433962264150944,1.8,7.308672086720867,0.0009413011999999999
547.52,541.83,11297.0,8.8517e-05,23.73,28.526,86.652,40.89,63.418,489.45,0.048436,45.667,0.066441,supercritical,CO2,C124389,carbon-dioxide,304.18,73.8,10.6,0.09433962264150944,1.8,7.341869918699188,0.0009382802
547.52,544.29,11333.0,8.8235e-05,23.716,28.518,86.599,40.896,63.431,490.5,0.047909,45.795,0.066587,supercritical,CO2,C124389,carbon-dioxide,304.18,73.8,10.6,0.09433962264150944,1.8,7.37520325203252,0.0009352909999999999
547.52,546.75,11369.0,8.7956e-05,23.702,28.511,86.545,40.902,63.445,491.55,0.047385,45.923,0.066732,supercritical,CO2,C124389,carbon-dioxide,304.18,73.8,10.6,0.09433962264150944,1.8,7.408536585365854,0.0009323335999999999
547.52,549.21,11405.0,8.7681e-05,23.688,28.503,86.493,40.908,63.458,492.6,0.046866,46.051,0.066877,supercritical,CO2,C124389,carbon-dioxide,304.18,73.8,10.6,0.09433962264150944,1.8,7.4418699186991875,0.0009294186
547.52,551.67,11441.0,8.7407e-05,23.674,28.496,86.44,40.915,63.471,493.65,0.04635,46.179,0.067022,supercritical,CO2,C124389,carbon-dioxide,304.18,73.8,10.6,0.09433962264150944,1.8,7.47520325203252,0.0009265141999999999
547.52,554.13,11476.0,8.7137e-05,23.66,28.489,86.388,40.921,63.484,494.7,0.045838,46.307,0.067166,supercritical,CO2,C124389,carbon-dioxide,304.18,73.8,10.6,0.09433962264150944,1.8,7.508536585365854,0.0009236521999999999
547.52,556.58,11511.0,8.687e-05,23.647,28.482,86.336,40.927,63.496,495.75,0.045331,46.435,0.06731,supercritical,CO2,C124389,carbon-dioxide,304.18,73.8,10.6,0.09433962264150944,1.8,7.541734417344174,0.000920822
547.52,559.04,11547.0,8.6605e-05,23.633,28.475,86.284,40.933,63.508,496.8,0.044827,46.564,0.067454,supercritical,CO2,C124389,carbon-dioxide,304.18,73.8,10.6,0.09433962264150944,1.8,7.575067750677507,0.000918013
547.52,561.5,11582.0,8.6343e-05,23.62,28.468,86.232,40.939,63.519,497.86,0.044327,46.692,0.067598,supercritical,CO2,C124389,carbon-dioxide,304.18,73.8,10.6,0.09433962264150944,1.8,7.608401084010841,0.0009152357999999999
547.52,563.96,11617.0,8.6084e-05,23.606,28.461,86.181,40.945,63.53,498.91,0.04383,46.82,0.067741,supercritical,CO2,C124389,carbon-dioxide,304.18,73.8,10.6,0.09433962264150944,1.8,7.641734417344174,0.0009124903999999999
547.52,566.42,11651.0,8.5827e-05,23.593,28.454,86.13,40.951,63.541,499.96,0.043338,46.948,0.067884,supercritical,CO2,C124389,carbon-dioxide,304.18,73.8,10.6,0.09433962264150944,1.8,7.675067750677506,0.0009097662
547.52,568.88,11686.0,8.5573e-05,23.579,28.447,86.079,40.957,63.552,501.01,0.042849,47.076,0.068026,supercritical,CO2,C124389,carbon-dioxide,304.18,73.8,10.6,0.09433962264150944,1.8,7.70840108401084,0.0009070737999999999
547.52,571.33,11720.0,8.5321e-05,23.566,28.441,86.029,40.963,63.562,502.06,0.042364,47.204,0.068169,supercritical,CO2,C124389,carbon-dioxide,304.18,73.8,10.6,0.09433962264150944,1.8,7.741598915989161,0.0009044026
547.52,573.79,11755.0,8.5072e-05,23.553,28.434,85.978,40.969,63.572,503.12,0.041882,47.332,0.068311,supercritical,CO2,C124389,carbon-dioxide,304.18,73.8,10.6,0.09433962264150944,1.8,7.774932249322493,0.0009017631999999999
547.52,576.25,11789.0,8.4825e-05,23.54,28.428,85.928,40.974,63.582,504.17,0.041404,47.46,0.068452,supercritical,CO2,C124389,carbon-dioxide,304.18,73.8,10.6,0.09433962264150944,1.8,7.808265582655827,0.000899145
547.52,578.71,11823.0,8.4581e-05,23.526,28.421,85.879,40.98,63.591,505.22,0.04093,47.588,0.068594,supercritical,CO2,C124389,carbon-dioxide,304.18,73.8,10.6,0.09433962264150944,1.8,7.84159891598916,0.0008965585999999999
547.52,581.17,11857.0,8.434e-05,23.513,28.415,85.829,40.986,63.6,506.28,0.040459,47.717,0.068735,supercritical,CO2,C124389,carbon-dioxide,304.18,73.8,10.6,0.09433962264150944,1.8,7.874932249322493,0.0008940039999999999
547.52,583.63,11891.0,8.41e-05,23.5,28.409,85.78,40.992,63.609,507.33,0.039992,47.845,0.068876,supercritical,CO2,C124389,carbon-dioxide,304.18,73.8,10.6,0.09433962264150944,1.8,7.908265582655827,0.00089146
547.52,586.08,11924.0,8.3863e-05,23.487,28.402,85.731,40.998,63.618,508.38,0.039528,47.973,0.069016,supercritical,CO2,C124389,carbon-dioxide,304.18,73.8,10.6,0.09433962264150944,1.8,7.941463414634147,0.0008889478
547.52,588.54,11958.0,8.3628e-05,23.474,28.396,85.682,41.003,63.626,509.43,0.039068,48.101,0.069156,supercritical,CO2,C124389,carbon-dioxide,304.18,73.8,10.6,0.09433962264150944,1.8,7.9747967479674795,0.0008864568
547.52,591.0,11991.0,8.3396e-05,23.461,28.39,85.633,41.009,63.634,510.49,0.038611,48.229,0.069296,supercritical,CO2,C124389,carbon-dioxide,304.18,73.8,10.6,0.09433962264150944,1.8,8.008130081300813,0.0008839976
547.52,593.46,12024.0,8.3166e-05,23.449,28.384,85.585,41.015,63.642,511.54,0.038158,48.357,0.069436,supercritical,CO2,C124389,carbon-dioxide,304.18,73.8,10.6,0.09433962264150944,1.8,8.041463414634148,0.0008815595999999998
547.52,595.92,12057.0,8.2938e-05,23.436,28.378,85.537,41.021,63.65,512.59,0.037708,48.484,0.069575,supercritical,CO2,C124389,carbon-dioxide,304.18,73.8,10.6,0.09433962264150944,1.8,8.07479674796748,0.0008791427999999999
547.52,598.38,12090.0,8.2712e-05,23.423,28.372,85.489,41.026,63.657,513.65,0.037262,48.612,0.069714,supercritical,CO2,C124389,carbon-dioxide,304.18,73.8,10.6,0.09433962264150944,1.8,8.108130081300814,0.0008767472
547.52,600.83,12123.0,8.2488e-05,23.41,28.366,85.441,41.032,63.664,514.7,0.036819,48.74,0.069853,supercritical,CO2,C124389,carbon-dioxide,304.18,73.8,10.6,0.09433962264150944,1.8,8.141327913279135,0.0008743727999999999
547.52,603.29,12156.0,8.2267e-05,23.398,28.361,85.394,41.037,63.671,515.75,0.036379,48.868,0.069992,supercritical,CO2,C124389,carbon-dioxide,304.18,73.8,10.6,0.09433962264150944,1.8,8.174661246612466,0.0008720301999999999
547.52,605.75,12188.0,8.2047e-05,23.385,28.355,85.347,41.043,63.677,516.8,0.035943,48.996,0.07013,supercritical,CO2,C124389,carbon-dioxide,304.18,73.8,10.6,0.09433962264150944,1.8,8.2079945799458,0.0008696981999999999
547.52,608.21,12220.0,8.183e-05,23.373,28.35,85.3,41.049,63.683,517.86,0.03551,49.124,0.070268,supercritical,CO2,C124389,carbon-dioxide,304.18,73.8,10.6,0.09433962264150944,1.8,8.241327913279134,0.0008673979999999999
547.52,610.67,12253.0,8.1615e-05,23.36,28.344,85.253,41.054,63.689,518.91,0.03508,49.251,0.070405,supercritical,CO2,C124389,carbon-dioxide,304.18,73.8,10.6,0.09433962264150944,1.8,8.274661246612466,0.0008651189999999999
547.52,613.13,12285.0,8.1401e-05,23.348,28.339,85.206,41.06,63.695,519.96,0.034653,49.379,0.070543,supercritical,CO2,C124389,carbon-dioxide,304.18,73.8,10.6,0.09433962264150944,1.8,8.3079945799458,0.0008628506
547.52,615.58,12317.0,8.119e-05,23.335,28.333,85.16,41.065,63.701,521.01,0.03423,49.507,0.07068,supercritical,CO2,C124389,carbon-dioxide,304.18,73.8,10.6,0.09433962264150944,1.8,8.341192411924121,0.0008606139999999999
547.52,618.04,12349.0,8.098e-05,23.323,28.328,85.114,41.071,63.706,522.06,0.03381,49.634,0.070816,supercritical,CO2,C124389,carbon-dioxide,304.18,73.8,10.6,0.09433962264150944,1.8,8.374525745257452,0.000858388
547.52,620.5,12380.0,8.0773e-05,23.311,28.323,85.068,41.076,63.712,523.11,0.033393,49.762,0.070953,supercritical,CO2,C124389,carbon-dioxide,304.18,73.8,10.6,0.09433962264150944,1.8,8.407859078590786,0.0008561937999999998
547.52,622.96,12412.0,8.0567e-05,23.298,28.317,85.022,41.082,63.716,524.16,0.032979,49.889,0.071089,supercritical,CO2,C124389,carbon-dioxide,304.18,73.8,10.6,0.09433962264150944,1.8,8.44119241192412,0.0008540102
547.52,625.42,12443.0,8.0363e-05,23.286,28.312,84.977,41.087,63.721,525.21,0.032568,50.017,0.071225,supercritical,CO2,C124389,carbon-dioxide,304.18,73.8,10.6,0.09433962264150944,1.8,8.474525745257452,0.0008518477999999999
547.52,627.88,12475.0,8.0162e-05,23.274,28.307,84.931,41.093,63.726,526.26,0.032161,50.144,0.07136,supercritical,CO2,C124389,carbon-dioxide,304.18,73.8,10.6,0.09433962264150944,1.8,8.507859078590787,0.0008497171999999999
547.52,630.33,12506.0,7.9961e-05,23.262,28.302,84.886,41.098,63.73,527.31,0.031756,50.271,0.071496,supercritical,CO2,C124389,carbon-dioxide,304.18,73.8,10.6,0.09433962264150944,1.8,8.541056910569107,0.0008475866
547.52,632.79,12537.0,7.9763e-05,23.25,28.297,84.841,41.103,63.734,528.36,0.031355,50.399,0.071631,supercritical,CO2,C124389,carbon-dioxide,304.18,73.8,10.6,0.09433962264150944,1.8,8.574390243902439,0.0008454878
547.52,635.25,12568.0,7.9567e-05,23.238,28.292,84.797,41.109,63.738,529.41,0.030956,50.526,0.071766,supercritical,CO2,C124389,carbon-dioxide,304.18,73.8,10.6,0.09433962264150944,1.8,8.607723577235772,0.0008434102
547.52,637.71,12599.0,7.9372e-05,23.226,28.287,84.752,41.114,63.742,530.46,0.030561,50.653,0.0719,supercritical,CO2,C124389,carbon-dioxide,304.18,73.8,10.6,0.09433962264150944,1.8,8.641056910569107,0.0008413431999999999
547.52,640.17,12630.0,7.9179e-05,23.214,28.283,84.708,41.119,63.746,531.51,0.030168,50.78,0.072034,supercritical,CO2,C124389,carbon-dioxide,304.18,73.8,10.6,0.09433962264150944,1.8,8.674390243902439,0.0008392973999999998
547.52,642.63,12660.0,7.8988e-05,23.202,28.278,84.664,41.125,63.749,532.55,0.029778,50.907,0.072168,supercritical,CO2,C124389,carbon-dioxide,304.18,73.8,10.6,0.09433962264150944,1.8,8.707723577235774,0.0008372727999999999
547.52,645.08,12691.0,7.8798e-05,23.19,28.273,84.62,41.13,63.752,533.6,0.029392,51.034,0.072302,supercritical,CO2,C124389,carbon-dioxide,304.18,73.8,10.6,0.09433962264150944,1.8,8.740921409214094,0.0008352587999999999
547.52,647.54,12721.0,7.861e-05,23.179,28.269,84.576,41.135,63.756,534.65,0.029008,51.161,0.072435,supercritical,CO2,C124389,carbon-dioxide,304.18,73.8,10.6,0.09433962264150944,1.8,8.774254742547425,0.0008332659999999999
547.52,650.0,12751.0,7.8424e-05,23.167,28.264,84.533,41.141,63.758,535.69,0.028627,51.288,0.072568,supercritical,CO2,C124389,carbon-dioxide,304.18,73.8,10.6,0.09433962264150944,1.8,8.807588075880759,0.0008312944
547.52,652.46,12781.0,7.8239e-05,23.155,28.26,84.489,41.146,63.761,536.74,0.028249,51.415,0.072701,supercritical,CO2,C124389,carbon-dioxide,304.18,73.8,10.6,0.09433962264150944,1.8,8.840921409214094,0.0008293333999999998
547.52,654.92,12811.0,7.8056e-05,23.143,28.255,84.446,41.151,63.764,537.78,0.027874,51.542,0.072834,supercritical,CO2,C124389,carbon-dioxide,304.18,73.8,10.6,0.09433962264150944,1.8,8.874254742547425,0.0008273935999999999
547.52,657.38,12841.0,7.7874e-05,23.132,28.251,84.403,41.156,63.766,538.83,0.027501,51.668,0.072966,supercritical,CO2,C124389,carbon-dioxide,304.18,73.8,10.6,0.09433962264150944,1.8,8.90758807588076,0.0008254643999999998
547.52,659.83,12871.0,7.7694e-05,23.12,28.247,84.361,41.162,63.768,539.87,0.027132,51.795,0.073098,supercritical,CO2,C124389,carbon-dioxide,304.18,73.8,10.6,0.09433962264150944,1.8,8.94078590785908,0.0008235564
547.52,662.29,12901.0,7.7516e-05,23.109,28.243,84.318,41.167,63.771,540.91,0.026765,51.922,0.07323,supercritical,CO2,C124389,carbon-dioxide,304.18,73.8,10.6,0.09433962264150944,1.8,8.974119241192412,0.0008216695999999999
547.52,664.75,12930.0,7.7339e-05,23.097,28.238,84.276,41.172,63.773,541.96,0.026401,52.048,0.073361,supercritical,CO2,C124389,carbon-dioxide,304.18,73.8,10.6,0.09433962264150944,1.8,9.007452574525745,0.0008197933999999999
547.52,667.21,12960.0,7.7163e-05,23.086,28.234,84.233,41.177,63.774,543.0,0.026039,52.175,0.073492,supercritical,CO2,C124389,carbon-dioxide,304.18,73.8,10.6,0.09433962264150944,1.8,9.04078590785908,0.0008179278
547.52,669.67,12989.0,7.6989e-05,23.075,28.23,84.191,41.182,63.776,544.04,0.025681,52.301,0.073623,supercritical,CO2,C124389,carbon-dioxide,304.18,73.8,10.6,0.09433962264150944,1.8,9.074119241192411,0.0008160834
547.52,672.13,13018.0,7.6817e-05,23.063,28.226,84.15,41.187,63.778,545.08,0.025325,52.427,0.073754,supercritical,CO2,C124389,carbon-dioxide,304.18,73.8,10.6,0.09433962264150944,1.8,9.107452574525746,0.0008142602
547.52,674.58,13047.0,7.6646e-05,23.052,28.222,84.108,41.193,63.779,546.12,0.024971,52.553,0.073884,supercritical,CO2,C124389,carbon-dioxide,304.18,73.8,10.6,0.09433962264150944,1.8,9.140650406504067,0.0008124475999999999