Temperature (K),Pressure (bar),Density (mol/m3),Volume (m3/mol),Internal Energy (kJ/mol),Enthalpy (kJ/mol),Entropy (J/mol*K),Cv (J/mol*K),Cp (J/mol*K),Sound Spd. (m/s),Joule-Thomson (K/bar),Viscosity (uPa*s),Therm. Cond. (W/m*K),Phase,substance,substance_id,substance_name,Tc,Pc,rhoc,Vmc,Tr,Pr,Vmr
271.55,1.0,44.333,0.022556,3.3794,5.635,152.88,12.481,20.847,306.95,0.43467,20.912,0.0164,vapor,Ar,C7440371,argon,150.86,48.9805,13.41,0.07457121551081282,1.8000000000000003,0.020416288114657875,0.30247596000000004
271.55,2.63,116.78,0.0085632,3.3681,5.6202,144.8,12.497,20.946,307.01,0.43279,20.943,0.016459,vapor,Ar,C7440371,argon,150.86,48.9805,13.41,0.07457121551081282,1.8000000000000003,0.053694837741550205,0.11483251200000001
271.55,4.26,189.45,0.0052785,3.3568,5.6054,140.75,12.513,21.046,307.07,0.43089,20.974,0.016519,vapor,Ar,C7440371,argon,150.86,48.9805,13.41,0.07457121551081282,1.8000000000000003,0.08697338736844254,0.07078468500000001
271.55,5.89,262.34,0.0038118,3.3455,5.5906,138.01,12.529,21.147,307.14,0.42899,21.007,0.01658,vapor,Ar,C7440371,argon,150.86,48.9805,13.41,0.07457121551081282,1.8000000000000003,0.12025193699533487,0.05111623800000001
271.55,7.52,335.46,0.002981,3.3341,5.5759,135.94,12.544,21.248,307.22,0.42707,21.04,0.016641,vapor,Ar,C7440371,argon,150.86,48.9805,13.41,0.07457121551081282,1.8000000000000003,0.1535304866222272,0.039975210000000004
271.55,9.15,408.8,0.0024462,3.3228,5.5611,134.26,12.56,21.35,307.3,0.42515,21.074,0.016703,vapor,Ar,C7440371,argon,150.86,48.9805,13.41,0.07457121551081282,1.8000000000000003,0.18680903624911957,0.032803542000000005
271.55,10.78,482.36,0.0020732,3.3114,5.5463,132.86,12.576,21.453,307.38,0.42321,21.109,0.016766,vapor,Ar,C7440371,argon,150.86,48.9805,13.41,0.07457121551081282,1.8000000000000003,0.22008758587601188,0.027801612
271.55,12.41,556.14,0.0017981,3.3,5.5315,131.65,12.591,21.556,307.47,0.42127,21.144,0.01683,vapor,Ar,C7440371,argon,150.86,48.9805,13.41,0.07457121551081282,1.8000000000000003,0.2533661355029042,0.024112521
271.55,14.04,630.14,0.001587,3.2886,5.5167,130.58,12.607,21.66,307.56,0.41931,21.181,0.016895,vapor,Ar,C7440371,argon,150.86,48.9805,13.41,0.07457121551081282,1.8000000000000003,0.2866446851297965,0.021281670000000003
271.55,15.67,704.36,0.0014197,3.2771,5.5019,129.62,12.623,21.765,307.66,0.41735,21.218,0.016961,vapor,Ar,C7440371,argon,150.86,48.9805,13.41,0.07457121551081282,1.8000000000000003,0.3199232347566889,0.019038177000000003
271.55,17.3,778.8,0.001284,3.2657,5.4871,128.76,12.638,21.87,307.76,0.41538,21.256,0.017027,vapor,Ar,C7440371,argon,150.86,48.9805,13.41,0.07457121551081282,1.8000000000000003,0.35320178438358124,0.01721844
271.55,18.93,853.45,0.0011717,3.2542,5.4722,127.97,12.654,21.976,307.87,0.4134,21.295,0.017094,vapor,Ar,C7440371,argon,150.86,48.9805,13.41,0.07457121551081282,1.8000000000000003,0.38648033401047355,0.015712497
271.55,20.56,928.32,0.0010772,3.2427,5.4574,127.24,12.669,22.082,307.98,0.41141,21.335,0.017163,vapor,Ar,C7440371,argon,150.86,48.9805,13.41,0.07457121551081282,1.8000000000000003,0.41975888363736585,0.014445252
271.55,22.19,1003.4,0.00099661,3.2312,5.4426,126.56,12.685,22.19,308.1,0.40941,21.375,0.017232,vapor,Ar,C7440371,argon,150.86,48.9805,13.41,0.07457121551081282,1.8000000000000003,0.45303743326425827,0.0133645401
271.55,23.82,1078.7,0.00092704,3.2196,5.4278,125.93,12.7,22.297,308.23,0.4074,21.417,0.017302,vapor,Ar,C7440371,argon,150.86,48.9805,13.41,0.07457121551081282,1.8000000000000003,0.4863159828911506,0.012431606400000001
271.55,25.45,1154.2,0.00086639,3.208,5.413,125.34,12.716,22.406,308.35,0.40538,21.459,0.017373,vapor,Ar,C7440371,argon,150.86,48.9805,13.41,0.07457121551081282,1.8000000000000003,0.5195945325180429,0.0116182899
271.55,27.08,1229.9,0.00081305,3.1965,5.3982,124.78,12.731,22.515,308.49,0.40335,21.502,0.017445,vapor,Ar,C7440371,argon,150.86,48.9805,13.41,0.07457121551081282,1.8000000000000003,0.5528730821449352,0.010903000500000001
271.55,28.71,1305.9,0.00076578,3.1849,5.3834,124.25,12.746,22.624,308.63,0.40131,21.546,0.017517,vapor,Ar,C7440371,argon,150.86,48.9805,13.41,0.07457121551081282,1.8000000000000003,0.5861516317718276,0.0102691098
271.55,30.34,1382.0,0.00072359,3.1732,5.3686,123.75,12.762,22.734,308.77,0.39926,21.591,0.017591,vapor,Ar,C7440371,argon,150.86,48.9805,13.41,0.07457121551081282,1.8000000000000003,0.6194301813987199,0.0097033419
271.55,31.97,1458.3,0.00068571,3.1616,5.3538,123.28,12.777,22.845,308.92,0.39721,21.637,0.017665,vapor,Ar,C7440371,argon,150.86,48.9805,13.41,0.07457121551081282,1.8000000000000003,0.6527087310256122,0.0091953711
271.55,33.6,1534.9,0.00065151,3.1499,5.339,122.82,12.792,22.956,309.08,0.39515,21.683,0.017741,vapor,Ar,C7440371,argon,150.86,48.9805,13.41,0.07457121551081282,1.8000000000000003,0.6859872806525046,0.008736749100000002
271.55,35.23,1611.6,0.00062049,3.1383,5.3242,122.38,12.807,23.068,309.24,0.39307,21.731,0.017817,vapor,Ar,C7440371,argon,150.86,48.9805,13.41,0.07457121551081282,1.8000000000000003,0.7192658302793968,0.008320770900000002
271.55,36.86,1688.6,0.00059221,3.1266,5.3095,121.97,12.823,23.18,309.41,0.39099,21.779,0.017894,vapor,Ar,C7440371,argon,150.86,48.9805,13.41,0.07457121551081282,1.8000000000000003,0.7525443799062892,0.0079415361
271.55,38.49,1765.7,0.00056634,3.1149,5.2947,121.56,12.838,23.293,309.58,0.38891,21.828,0.017972,vapor,Ar,C7440371,argon,150.86,48.9805,13.41,0.07457121551081282,1.8000000000000003,0.7858229295331817,0.007594619400000001
271.55,40.12,1843.1,0.00054257,3.1032,5.2799,121.18,12.853,23.406,309.76,0.38681,21.878,0.018052,vapor,Ar,C7440371,argon,150.86,48.9805,13.41,0.07457121551081282,1.8000000000000003,0.8191014791600739,0.007275863700000001
271.55,41.75,1920.6,0.00052066,3.0914,5.2652,120.8,12.868,23.52,309.95,0.3847,21.929,0.018132,vapor,Ar,C7440371,argon,150.86,48.9805,13.41,0.07457121551081282,1.8000000000000003,0.8523800287869663,0.006982050600000001
271.55,43.38,1998.4,0.00050041,3.0797,5.2504,120.44,12.883,23.635,310.14,0.38259,21.981,0.018212,vapor,Ar,C7440371,argon,150.86,48.9805,13.41,0.07457121551081282,1.8000000000000003,0.8856585784138586,0.0067104981
271.55,45.01,2076.3,0.00048163,3.0679,5.2357,120.09,12.898,23.75,310.33,0.38047,22.034,0.018294,vapor,Ar,C7440371,argon,150.86,48.9805,13.41,0.07457121551081282,1.8000000000000003,0.9189371280407509,0.0064586583000000005
271.55,46.64,2154.4,0.00046417,3.0561,5.221,119.76,12.913,23.865,310.53,0.37834,22.088,0.018377,vapor,Ar,C7440371,argon,150.86,48.9805,13.41,0.07457121551081282,1.8000000000000003,0.9522156776676433,0.006224519700000001
271.55,48.27,2232.7,0.00044789,3.0443,5.2063,119.43,12.928,23.981,310.74,0.37621,22.142,0.018461,vapor,Ar,C7440371,argon,150.86,48.9805,13.41,0.07457121551081282,1.8000000000000003,0.9854942272945356,0.006006204900000001
271.55,49.9,2311.2,0.00043268,3.0325,5.1916,119.11,12.942,24.097,310.96,0.37407,22.198,0.018545,vapor,Ar,C7440371,argon,150.86,48.9805,13.41,0.07457121551081282,1.8000000000000003,1.0187727769214279,0.005802238800000001
271.55,49.9,2311.2,0.00043268,3.0325,5.1916,119.11,12.942,24.097,310.96,0.37407,22.198,0.018545,supercritical,Ar,C7440371,argon,150.86,48.9805,13.41,0.07457121551081282,1.8000000000000003,1.0187727769214279,0.005802238800000001
271.55,51.53,2389.8,0.00041844,3.0207,5.1769,118.8,12.957,24.214,311.18,0.37192,22.254,0.018631,supercritical,Ar,C7440371,argon,150.86,48.9805,13.41,0.07457121551081282,1.8000000000000003,1.0520513265483202,0.005611280400000001
271.55,53.16,2468.7,0.00040508,3.0088,5.1622,118.5,12.972,24.331,311.4,0.36976,22.311,0.018717,supercritical,Ar,C7440371,argon,150.86,48.9805,13.41,0.07457121551081282,1.8000000000000003,1.0853298761752126,0.0054321228000000004
271.55,54.79,2547.7,0.00039252,2.997,5.1476,118.2,12.987,24.449,311.64,0.3676,22.369,0.018804,supercritical,Ar,C7440371,argon,150.86,48.9805,13.41,0.07457121551081282,1.8000000000000003,1.118608425802105,0.005263693200000001
271.55,56.42,2626.8,0.00038068,2.9851,5.1329,117.92,13.001,24.567,311.87,0.36543,22.428,0.018893,supercritical,Ar,C7440371,argon,150.86,48.9805,13.41,0.07457121551081282,1.8000000000000003,1.1518869754289973,0.0051049188
271.55,58.05,2706.2,0.00036952,2.9732,5.1183,117.64,13.016,24.685,312.12,0.36326,22.488,0.018982,supercritical,Ar,C7440371,argon,150.86,48.9805,13.41,0.07457121551081282,1.8000000000000003,1.1851655250558895,0.004955263200000001
271.55,59.68,2785.7,0.00035897,2.9613,5.1037,117.37,13.03,24.803,312.37,0.36107,22.549,0.019072,supercritical,Ar,C7440371,argon,150.86,48.9805,13.41,0.07457121551081282,1.8000000000000003,1.218444074682782,0.004813787700000001
271.55,61.31,2865.4,0.00034899,2.9494,5.0891,117.1,13.045,24.922,312.63,0.35889,22.611,0.019162,supercritical,Ar,C7440371,argon,150.86,48.9805,13.41,0.07457121551081282,1.8000000000000003,1.2517226243096744,0.0046799559
271.55,62.94,2945.2,0.00033953,2.9375,5.0745,116.84,13.059,25.042,312.89,0.35669,22.673,0.019254,supercritical,Ar,C7440371,argon,150.86,48.9805,13.41,0.07457121551081282,1.8000000000000003,1.2850011739365665,0.0045530973
271.55,64.57,3025.2,0.00033055,2.9256,5.06,116.59,13.073,25.161,313.16,0.3545,22.737,0.019347,supercritical,Ar,C7440371,argon,150.86,48.9805,13.41,0.07457121551081282,1.8000000000000003,1.318279723563459,0.0044326755
271.55,66.2,3105.4,0.00032202,2.9137,5.0454,116.34,13.088,25.281,313.44,0.35229,22.801,0.01944,supercritical,Ar,C7440371,argon,150.86,48.9805,13.41,0.07457121551081282,1.8000000000000003,1.3515582731903513,0.004318288200000001
271.55,67.83,3185.7,0.0003139,2.9017,5.0309,116.09,13.102,25.401,313.72,0.35008,22.866,0.019535,supercritical,Ar,C7440371,argon,150.86,48.9805,13.41,0.07457121551081282,1.8000000000000003,1.3848368228172436,0.004209399
271.55,69.46,3266.1,0.00030617,2.8898,5.0165,115.85,13.116,25.522,314.02,0.34787,22.932,0.01963,supercritical,Ar,C7440371,argon,150.86,48.9805,13.41,0.07457121551081282,1.8000000000000003,1.4181153724441358,0.0041057397
271.55,71.09,3346.7,0.0002988,2.8778,5.002,115.62,13.13,25.642,314.31,0.34565,22.999,0.019726,supercritical,Ar,C7440371,argon,150.86,48.9805,13.41,0.07457121551081282,1.8000000000000003,1.4513939220710284,0.004006908
271.55,72.72,3427.4,0.00029176,2.8659,4.9876,115.39,13.144,25.763,314.62,0.34343,23.067,0.019823,supercritical,Ar,C7440371,argon,150.86,48.9805,13.41,0.07457121551081282,1.8000000000000003,1.4846724716979205,0.003912501600000001
271.55,74.35,3508.3,0.00028504,2.8539,4.9732,115.16,13.158,25.884,314.93,0.34121,23.136,0.019921,supercritical,Ar,C7440371,argon,150.86,48.9805,13.41,0.07457121551081282,1.8000000000000003,1.5179510213248129,0.0038223864000000007
271.55,75.98,3589.3,0.00027861,2.8419,4.9588,114.94,13.172,26.005,315.24,0.33898,23.206,0.020019,supercritical,Ar,C7440371,argon,150.86,48.9805,13.41,0.07457121551081282,1.8000000000000003,1.5512295709517054,0.0037361601
271.55,77.61,3670.4,0.00027245,2.8299,4.9444,114.72,13.186,26.126,315.57,0.33674,23.276,0.020119,supercritical,Ar,C7440371,argon,150.86,48.9805,13.41,0.07457121551081282,1.8000000000000003,1.5845081205785976,0.0036535545
271.55,79.24,3751.7,0.00026655,2.818,4.9301,114.51,13.2,26.247,315.9,0.33451,23.347,0.020219,supercritical,Ar,C7440371,argon,150.86,48.9805,13.41,0.07457121551081282,1.8000000000000003,1.61778667020549,0.0035744355000000005
271.55,80.87,3833.0,0.00026089,2.806,4.9158,114.3,13.214,26.369,316.24,0.33227,23.419,0.02032,supercritical,Ar,C7440371,argon,150.86,48.9805,13.41,0.07457121551081282,1.8000000000000003,1.6510652198323823,0.0034985349000000005
271.55,82.5,3914.5,0.00025546,2.794,4.9015,114.09,13.227,26.49,316.58,0.33003,23.492,0.020422,supercritical,Ar,C7440371,argon,150.86,48.9805,13.41,0.07457121551081282,1.8000000000000003,1.6843437694592747,0.0034257186
271.55,84.13,3996.1,0.00025024,2.782,4.8873,113.88,13.241,26.612,316.93,0.32778,23.566,0.020524,supercritical,Ar,C7440371,argon,150.86,48.9805,13.41,0.07457121551081282,1.8000000000000003,1.7176223190861668,0.0033557184000000003
271.55,85.76,4077.8,0.00024523,2.77,4.8731,113.68,13.254,26.733,317.29,0.32553,23.641,0.020628,supercritical,Ar,C7440371,argon,150.86,48.9805,13.41,0.07457121551081282,1.8000000000000003,1.7509008687130594,0.0032885343
271.55,87.39,4159.6,0.00024041,2.758,4.8589,113.49,13.268,26.855,317.66,0.32328,23.716,0.020732,supercritical,Ar,C7440371,argon,150.86,48.9805,13.41,0.07457121551081282,1.8000000000000003,1.7841794183399518,0.0032238981000000002
271.55,89.02,4241.5,0.00023577,2.746,4.8448,113.29,13.281,26.976,318.03,0.32103,23.793,0.020837,supercritical,Ar,C7440371,argon,150.86,48.9805,13.41,0.07457121551081282,1.8000000000000003,1.817457967966844,0.0031616757000000003
271.55,90.65,4323.5,0.0002313,2.734,4.8307,113.1,13.294,27.098,318.41,0.31878,23.87,0.020942,supercritical,Ar,C7440371,argon,150.86,48.9805,13.41,0.07457121551081282,1.8000000000000003,1.8507365175937365,0.0031017330000000006
271.55,92.28,4405.6,0.00022699,2.722,4.8166,112.91,13.308,27.219,318.8,0.31653,23.948,0.021048,supercritical,Ar,C7440371,argon,150.86,48.9805,13.41,0.07457121551081282,1.8000000000000003,1.8840150672206286,0.0030439359
271.55,93.91,4487.7,0.00022283,2.71,4.8026,112.72,13.321,27.34,319.19,0.31427,24.026,0.021155,supercritical,Ar,C7440371,argon,150.86,48.9805,13.41,0.07457121551081282,1.8000000000000003,1.917293616847521,0.0029881503000000003
271.55,95.54,4570.0,0.00021882,2.698,4.7886,112.54,13.334,27.462,319.59,0.31201,24.106,0.021263,supercritical,Ar,C7440371,argon,150.86,48.9805,13.41,0.07457121551081282,1.8000000000000003,1.9505721664744133,0.0029343762000000003
271.55,97.17,4652.3,0.00021495,2.686,4.7747,112.36,13.347,27.582,320.0,0.30976,24.186,0.021371,supercritical,Ar,C7440371,argon,150.86,48.9805,13.41,0.07457121551081282,1.8000000000000003,1.9838507161013057,0.0028824795
271.55,98.8,4734.6,0.00021121,2.674,4.7608,112.18,13.36,27.703,320.42,0.3075,24.267,0.02148,supercritical,Ar,C7440371,argon,150.86,48.9805,13.41,0.07457121551081282,1.8000000000000003,2.017129265728198,0.0028323261000000005
271.55,100.43,4817.1,0.00020759,2.662,4.7469,112.0,13.372,27.824,320.84,0.30524,24.348,0.02159,supercritical,Ar,C7440371,argon,150.86,48.9805,13.41,0.07457121551081282,1.8000000000000003,2.0504078153550904,0.0027837819000000002
271.55,102.06,4899.6,0.0002041,2.6501,4.7331,111.83,13.385,27.944,321.27,0.30299,24.431,0.0217,supercritical,Ar,C7440371,argon,150.86,48.9805,13.41,0.07457121551081282,1.8000000000000003,2.0836863649819826,0.0027369810000000003
271.55,103.69,4982.2,0.00020072,2.6381,4.7193,111.65,13.398,28.064,321.71,0.30073,24.514,0.021811,supercritical,Ar,C7440371,argon,150.86,48.9805,13.41,0.07457121551081282,1.8000000000000003,2.116964914608875,0.0026916552000000003
271.55,105.32,5064.8,0.00019744,2.6261,4.7056,111.48,13.41,28.184,322.15,0.29848,24.598,0.021922,supercritical,Ar,C7440371,argon,150.86,48.9805,13.41,0.07457121551081282,1.8000000000000003,2.1502434642357673,0.0026476704000000005
271.55,106.95,5147.4,0.00019427,2.6141,4.6919,111.32,13.423,28.303,322.6,0.29622,24.683,0.022034,supercritical,Ar,C7440371,argon,150.86,48.9805,13.41,0.07457121551081282,1.8000000000000003,2.18352201386266,0.0026051607000000003
271.55,108.58,5230.1,0.0001912,2.6022,4.6782,111.15,13.435,28.422,323.06,0.29397,24.768,0.022146,supercritical,Ar,C7440371,argon,150.86,48.9805,13.41,0.07457121551081282,1.8000000000000003,2.216800563489552,0.0025639920000000006
271.55,110.21,5312.8,0.00018822,2.5902,4.6646,110.99,13.448,28.541,323.53,0.29172,24.854,0.022259,supercritical,Ar,C7440371,argon,150.86,48.9805,13.41,0.07457121551081282,1.8000000000000003,2.250079113116444,0.0025240302000000005
271.55,111.84,5395.6,0.00018534,2.5783,4.6511,110.82,13.46,28.659,324.0,0.28947,24.941,0.022373,supercritical,Ar,C7440371,argon,150.86,48.9805,13.41,0.07457121551081282,1.8000000000000003,2.2833576627433367,0.0024854094
271.55,113.47,5478.3,0.00018254,2.5663,4.6376,110.66,13.472,28.777,324.48,0.28722,25.028,0.022487,supercritical,Ar,C7440371,argon,150.86,48.9805,13.41,0.07457121551081282,1.8000000000000003,2.316636212370229,0.0024478614
271.55,115.1,5561.1,0.00017982,2.5544,4.6242,110.51,13.484,28.894,324.97,0.28498,25.116,0.022602,supercritical,Ar,C7440371,argon,150.86,48.9805,13.41,0.07457121551081282,1.8000000000000003,2.349914761997121,0.0024113862000000002
271.55,116.73,5643.9,0.00017718,2.5425,4.6108,110.35,13.496,29.011,325.47,0.28274,25.204,0.022717,supercritical,Ar,C7440371,argon,150.86,48.9805,13.41,0.07457121551081282,1.8000000000000003,2.3831933116240136,0.0023759838
271.55,118.36,5726.7,0.00017462,2.5306,4.5974,110.2,13.508,29.128,325.97,0.2805,25.294,0.022832,supercritical,Ar,C7440371,argon,150.86,48.9805,13.41,0.07457121551081282,1.8000000000000003,2.416471861250906,0.0023416542000000004
271.55,119.99,5809.5,0.00017213,2.5187,4.5841,110.04,13.52,29.244,326.48,0.27826,25.384,0.022948,supercritical,Ar,C7440371,argon,150.86,48.9805,13.41,0.07457121551081282,1.8000000000000003,2.4497504108777983,0.0023082633
271.55,121.62,5892.3,0.00016971,2.5068,4.5709,109.89,13.531,29.359,327.0,0.27603,25.474,0.023064,supercritical,Ar,C7440371,argon,150.86,48.9805,13.41,0.07457121551081282,1.8000000000000003,2.483028960504691,0.0022758111
271.55,123.25,5975.1,0.00016736,2.495,4.5577,109.74,13.543,29.473,327.53,0.2738,25.565,0.023181,supercritical,Ar,C7440371,argon,150.86,48.9805,13.41,0.07457121551081282,1.8000000000000003,2.516307510131583,0.0022442976000000003
271.55,124.88,6057.9,0.00016507,2.4831,4.5446,109.59,13.555,29.588,328.06,0.27157,25.657,0.023298,supercritical,Ar,C7440371,argon,150.86,48.9805,13.41,0.07457121551081282,1.8000000000000003,2.549586059758475,0.0022135887
271.55,126.51,6140.6,0.00016285,2.4713,4.5315,109.45,13.566,29.701,328.6,0.26935,25.749,0.023416,supercritical,Ar,C7440371,argon,150.86,48.9805,13.41,0.07457121551081282,1.8000000000000003,2.5828646093853678,0.0021838185000000003
271.55,128.14,6223.3,0.00016069,2.4595,4.5185,109.3,13.577,29.814,329.15,0.26714,25.842,0.023534,supercritical,Ar,C7440371,argon,150.86,48.9805,13.41,0.07457121551081282,1.8000000000000003,2.61614315901226,0.0021548529000000004
271.55,129.77,6306.0,0.00015858,2.4477,4.5055,109.16,13.589,29.926,329.7,0.26493,25.936,0.023652,supercritical,Ar,C7440371,argon,150.86,48.9805,13.41,0.07457121551081282,1.8000000000000003,2.6494217086391525,0.0021265578
271.55,131.4,6388.7,0.00015653,2.4359,4.4927,109.02,13.6,30.037,330.26,0.26272,26.03,0.023771,supercritical,Ar,C7440371,argon,150.86,48.9805,13.41,0.07457121551081282,1.8000000000000003,2.6827002582660446,0.0020990673
271.55,133.03,6471.3,0.00015453,2.4241,4.4798,108.88,13.611,30.148,330.83,0.26052,26.125,0.02389,supercritical,Ar,C7440371,argon,150.86,48.9805,13.41,0.07457121551081282,1.8000000000000003,2.715978807892937,0.0020722473000000003
271.55,134.66,6553.8,0.00015258,2.4124,4.467,108.74,13.622,30.258,331.41,0.25832,26.22,0.024009,supercritical,Ar,C7440371,argon,150.86,48.9805,13.41,0.07457121551081282,1.8000000000000003,2.7492573575198294,0.0020460978000000005
271.55,136.29,6636.3,0.00015069,2.4006,4.4543,108.6,13.633,30.367,331.99,0.25613,26.315,0.024129,supercritical,Ar,C7440371,argon,150.86,48.9805,13.41,0.07457121551081282,1.8000000000000003,2.7825359071467215,0.0020207529000000005
271.55,137.92,6718.7,0.00014884,2.3889,4.4417,108.46,13.644,30.475,332.58,0.25395,26.412,0.024249,supercritical,Ar,C7440371,argon,150.86,48.9805,13.41,0.07457121551081282,1.8000000000000003,2.8158144567736136,0.0019959444
271.55,139.55,6801.1,0.00014704,2.3772,4.4291,108.33,13.655,30.582,333.18,0.25177,26.508,0.024369,supercritical,Ar,C7440371,argon,150.86,48.9805,13.41,0.07457121551081282,1.8000000000000003,2.8490930064005067,0.0019718064
271.55,141.18,6883.4,0.00014528,2.3656,4.4166,108.19,13.665,30.689,333.79,0.2496,26.605,0.024489,supercritical,Ar,C7440371,argon,150.86,48.9805,13.41,0.07457121551081282,1.8000000000000003,2.882371556027399,0.0019482048