Temperature (K),Pressure (bar),Density (mol/m3),Volume (m3/mol),Internal Energy (kJ/mol),Enthalpy (kJ/mol),Entropy (J/mol*K),Cv (J/mol*K),Cp (J/mol*K),Sound Spd. (m/s),Joule-Thomson (K/bar),Viscosity (uPa*s),Therm. Cond. (W/m*K),Phase,substance,substance_id,substance_name,Tc,Pc,rhoc,Vmc,Tr,Pr,Vmr
196.12,890.98,29892.0,3.3454e-05,-1.9317,1.0489,77.527,17.465,34.706,823.54,-0.048388,115.1,0.096168,supercritical,Ar,C7440371,argon,150.86,48.9805,13.41,0.07457121551081282,1.3,18.190504384397872,0.00044861814000000006
196.12,892.61,29904.0,3.344e-05,-1.9332,1.0517,77.513,17.469,34.699,824.14,-0.048441,115.22,0.096257,supercritical,Ar,C7440371,argon,150.86,48.9805,13.41,0.07457121551081282,1.3,18.223782934024765,0.0004484304
196.12,894.24,29916.0,3.3427e-05,-1.9347,1.0544,77.5,17.473,34.691,824.73,-0.048493,115.35,0.096345,supercritical,Ar,C7440371,argon,150.86,48.9805,13.41,0.07457121551081282,1.3,18.257061483651658,0.00044825607
196.12,895.87,29928.0,3.3414e-05,-1.9363,1.0572,77.486,17.477,34.684,825.32,-0.048545,115.47,0.096433,supercritical,Ar,C7440371,argon,150.86,48.9805,13.41,0.07457121551081282,1.3,18.29034003327855,0.0004480817400000001
196.12,897.5,29940.0,3.34e-05,-1.9378,1.0599,77.472,17.481,34.676,825.92,-0.048596,115.6,0.096522,supercritical,Ar,C7440371,argon,150.86,48.9805,13.41,0.07457121551081282,1.3,18.323618582905443,0.000447894
196.12,899.13,29952.0,3.3387e-05,-1.9393,1.0627,77.458,17.485,34.669,826.51,-0.048648,115.72,0.09661,supercritical,Ar,C7440371,argon,150.86,48.9805,13.41,0.07457121551081282,1.3,18.356897132532335,0.00044771967
196.12,900.76,29963.0,3.3374e-05,-1.9408,1.0654,77.445,17.489,34.662,827.1,-0.048699,115.85,0.096698,supercritical,Ar,C7440371,argon,150.86,48.9805,13.41,0.07457121551081282,1.3,18.390175682159228,0.0004475453400000001
196.12,902.39,29975.0,3.3361e-05,-1.9423,1.0682,77.431,17.493,34.654,827.68,-0.04875,115.97,0.096786,supercritical,Ar,C7440371,argon,150.86,48.9805,13.41,0.07457121551081282,1.3,18.42345423178612,0.0004473710100000001
196.12,904.02,29987.0,3.3348e-05,-1.9438,1.0709,77.417,17.496,34.647,828.27,-0.0488,116.1,0.096874,supercritical,Ar,C7440371,argon,150.86,48.9805,13.41,0.07457121551081282,1.3,18.45673278141301,0.00044719668000000007
196.12,905.65,29999.0,3.3335e-05,-1.9453,1.0737,77.404,17.5,34.64,828.86,-0.048851,116.22,0.096962,supercritical,Ar,C7440371,argon,150.86,48.9805,13.41,0.07457121551081282,1.3,18.490011331039902,0.00044702235
196.12,907.28,30011.0,3.3322e-05,-1.9468,1.0764,77.39,17.504,34.632,829.45,-0.048901,116.35,0.097049,supercritical,Ar,C7440371,argon,150.86,48.9805,13.41,0.07457121551081282,1.3,18.523289880666795,0.00044684802
196.12,908.91,30022.0,3.3309e-05,-1.9482,1.0792,77.376,17.508,34.625,830.03,-0.048951,116.47,0.097137,supercritical,Ar,C7440371,argon,150.86,48.9805,13.41,0.07457121551081282,1.3,18.556568430293687,0.0004466736900000001
196.12,910.54,30034.0,3.3296e-05,-1.9497,1.082,77.363,17.512,34.618,830.62,-0.049001,116.6,0.097225,supercritical,Ar,C7440371,argon,150.86,48.9805,13.41,0.07457121551081282,1.3,18.58984697992058,0.0004464993600000001
196.12,912.17,30046.0,3.3283e-05,-1.9512,1.0847,77.349,17.516,34.611,831.2,-0.04905,116.72,0.097312,supercritical,Ar,C7440371,argon,150.86,48.9805,13.41,0.07457121551081282,1.3,18.623125529547472,0.00044632503000000006
196.12,913.8,30057.0,3.327e-05,-1.9527,1.0875,77.336,17.52,34.604,831.78,-0.0491,116.85,0.0974,supercritical,Ar,C7440371,argon,150.86,48.9805,13.41,0.07457121551081282,1.3,18.656404079174365,0.0004461507
196.12,915.43,30069.0,3.3257e-05,-1.9542,1.0903,77.322,17.524,34.597,832.37,-0.049149,116.97,0.097487,supercritical,Ar,C7440371,argon,150.86,48.9805,13.41,0.07457121551081282,1.3,18.689682628801258,0.00044597637
196.12,917.06,30081.0,3.3244e-05,-1.9556,1.093,77.309,17.528,34.59,832.95,-0.049198,117.1,0.097574,supercritical,Ar,C7440371,argon,150.86,48.9805,13.41,0.07457121551081282,1.3,18.72296117842815,0.0004458020400000001
196.12,918.69,30092.0,3.3231e-05,-1.9571,1.0958,77.295,17.532,34.583,833.53,-0.049247,117.22,0.097662,supercritical,Ar,C7440371,argon,150.86,48.9805,13.41,0.07457121551081282,1.3,18.756239728055043,0.00044562771000000007
196.12,920.32,30104.0,3.3218e-05,-1.9586,1.0986,77.282,17.536,34.576,834.11,-0.049295,117.35,0.097749,supercritical,Ar,C7440371,argon,150.86,48.9805,13.41,0.07457121551081282,1.3,18.789518277681935,0.00044545338000000006
196.12,921.95,30115.0,3.3206e-05,-1.96,1.1014,77.268,17.539,34.569,834.69,-0.049343,117.47,0.097836,supercritical,Ar,C7440371,argon,150.86,48.9805,13.41,0.07457121551081282,1.3,18.822796827308828,0.00044529246
196.12,923.58,30127.0,3.3193e-05,-1.9615,1.1042,77.255,17.543,34.562,835.27,-0.049391,117.6,0.097923,supercritical,Ar,C7440371,argon,150.86,48.9805,13.41,0.07457121551081282,1.3,18.85607537693572,0.00044511813
196.12,925.21,30138.0,3.318e-05,-1.9629,1.1069,77.241,17.547,34.555,835.84,-0.049439,117.72,0.09801,supercritical,Ar,C7440371,argon,150.86,48.9805,13.41,0.07457121551081282,1.3,18.889353926562613,0.0004449438
196.12,926.84,30150.0,3.3168e-05,-1.9644,1.1097,77.228,17.551,34.548,836.42,-0.049487,117.84,0.098096,supercritical,Ar,C7440371,argon,150.86,48.9805,13.41,0.07457121551081282,1.3,18.922632476189506,0.00044478288
196.12,928.47,30161.0,3.3155e-05,-1.9658,1.1125,77.215,17.555,34.541,837.0,-0.049534,117.97,0.098183,supercritical,Ar,C7440371,argon,150.86,48.9805,13.41,0.07457121551081282,1.3,18.9559110258164,0.00044460855
196.12,930.1,30173.0,3.3142e-05,-1.9673,1.1153,77.201,17.559,34.534,837.57,-0.049582,118.09,0.09827,supercritical,Ar,C7440371,argon,150.86,48.9805,13.41,0.07457121551081282,1.3,18.98918957544329,0.00044443422000000005
196.12,931.73,30184.0,3.313e-05,-1.9687,1.1181,77.188,17.563,34.527,838.14,-0.049629,118.22,0.098356,supercritical,Ar,C7440371,argon,150.86,48.9805,13.41,0.07457121551081282,1.3,19.02246812507018,0.00044427330000000007
196.12,933.36,30196.0,3.3117e-05,-1.9702,1.1209,77.175,17.567,34.521,838.72,-0.049676,118.34,0.098443,supercritical,Ar,C7440371,argon,150.86,48.9805,13.41,0.07457121551081282,1.3,19.055746674697073,0.00044409897000000006
196.12,934.99,30207.0,3.3105e-05,-1.9716,1.1237,77.162,17.57,34.514,839.29,-0.049722,118.46,0.098529,supercritical,Ar,C7440371,argon,150.86,48.9805,13.41,0.07457121551081282,1.3,19.089025224323965,0.0004439380500000001
196.12,936.62,30218.0,3.3092e-05,-1.973,1.1265,77.148,17.574,34.507,839.86,-0.049769,118.59,0.098616,supercritical,Ar,C7440371,argon,150.86,48.9805,13.41,0.07457121551081282,1.3,19.122303773950858,0.00044376372000000006
196.12,938.25,30230.0,3.308e-05,-1.9745,1.1293,77.135,17.578,34.5,840.43,-0.049815,118.71,0.098702,supercritical,Ar,C7440371,argon,150.86,48.9805,13.41,0.07457121551081282,1.3,19.15558232357775,0.0004436028000000001
196.12,939.88,30241.0,3.3068e-05,-1.9759,1.1321,77.122,17.582,34.494,841.0,-0.049861,118.84,0.098788,supercritical,Ar,C7440371,argon,150.86,48.9805,13.41,0.07457121551081282,1.3,19.188860873204643,0.0004434418800000001
196.12,941.51,30252.0,3.3055e-05,-1.9773,1.1349,77.109,17.586,34.487,841.57,-0.049907,118.96,0.098874,supercritical,Ar,C7440371,argon,150.86,48.9805,13.41,0.07457121551081282,1.3,19.222139422831535,0.00044326755000000003
196.12,943.14,30264.0,3.3043e-05,-1.9787,1.1377,77.096,17.59,34.48,842.14,-0.049952,119.09,0.09896,supercritical,Ar,C7440371,argon,150.86,48.9805,13.41,0.07457121551081282,1.3,19.255417972458428,0.00044310663000000005
196.12,944.77,30275.0,3.3031e-05,-1.9801,1.1405,77.082,17.594,34.474,842.71,-0.049998,119.21,0.099046,supercritical,Ar,C7440371,argon,150.86,48.9805,13.41,0.07457121551081282,1.3,19.28869652208532,0.00044294571000000007
196.12,946.4,30286.0,3.3018e-05,-1.9815,1.1433,77.069,17.597,34.467,843.28,-0.050043,119.33,0.099132,supercritical,Ar,C7440371,argon,150.86,48.9805,13.41,0.07457121551081282,1.3,19.321975071712213,0.00044277138000000006
196.12,948.03,30297.0,3.3006e-05,-1.983,1.1461,77.056,17.601,34.461,843.84,-0.050088,119.46,0.099218,supercritical,Ar,C7440371,argon,150.86,48.9805,13.41,0.07457121551081282,1.3,19.355253621339106,0.0004426104600000001
196.12,949.66,30309.0,3.2994e-05,-1.9844,1.1489,77.043,17.605,34.454,844.41,-0.050133,119.58,0.099304,supercritical,Ar,C7440371,argon,150.86,48.9805,13.41,0.07457121551081282,1.3,19.388532170965995,0.0004424495400000001
196.12,951.29,30320.0,3.2982e-05,-1.9858,1.1518,77.03,17.609,34.448,844.97,-0.050178,119.7,0.099389,supercritical,Ar,C7440371,argon,150.86,48.9805,13.41,0.07457121551081282,1.3,19.421810720592887,0.00044228862
196.12,952.92,30331.0,3.297e-05,-1.9872,1.1546,77.017,17.613,34.441,845.54,-0.050222,119.83,0.099475,supercritical,Ar,C7440371,argon,150.86,48.9805,13.41,0.07457121551081282,1.3,19.45508927021978,0.0004421277
196.12,954.55,30342.0,3.2958e-05,-1.9886,1.1574,77.004,17.617,34.435,846.1,-0.050267,119.95,0.09956,supercritical,Ar,C7440371,argon,150.86,48.9805,13.41,0.07457121551081282,1.3,19.488367819846673,0.00044196678000000004
196.12,956.18,30353.0,3.2945e-05,-1.99,1.1602,76.991,17.621,34.428,846.66,-0.050311,120.08,0.099646,supercritical,Ar,C7440371,argon,150.86,48.9805,13.41,0.07457121551081282,1.3,19.521646369473565,0.00044179245
196.12,957.81,30364.0,3.2933e-05,-1.9913,1.163,76.978,17.624,34.422,847.23,-0.050355,120.2,0.099731,supercritical,Ar,C7440371,argon,150.86,48.9805,13.41,0.07457121551081282,1.3,19.554924919100458,0.00044163153
196.12,959.44,30375.0,3.2921e-05,-1.9927,1.1659,76.965,17.628,34.416,847.79,-0.050398,120.32,0.099816,supercritical,Ar,C7440371,argon,150.86,48.9805,13.41,0.07457121551081282,1.3,19.588203468727354,0.00044147061
196.12,961.07,30387.0,3.2909e-05,-1.9941,1.1687,76.952,17.632,34.409,848.35,-0.050442,120.45,0.099902,supercritical,Ar,C7440371,argon,150.86,48.9805,13.41,0.07457121551081282,1.3,19.621482018354243,0.00044130969000000003
196.12,962.7,30398.0,3.2897e-05,-1.9955,1.1715,76.939,17.636,34.403,848.91,-0.050485,120.57,0.099987,supercritical,Ar,C7440371,argon,150.86,48.9805,13.41,0.07457121551081282,1.3,19.654760567981135,0.00044114877000000005
196.12,964.33,30409.0,3.2885e-05,-1.9969,1.1744,76.926,17.64,34.397,849.46,-0.050528,120.69,0.10007,supercritical,Ar,C7440371,argon,150.86,48.9805,13.41,0.07457121551081282,1.3,19.688039117608028,0.00044098785000000007
196.12,965.96,30420.0,3.2874e-05,-1.9983,1.1772,76.913,17.643,34.39,850.02,-0.050571,120.82,0.10016,supercritical,Ar,C7440371,argon,150.86,48.9805,13.41,0.07457121551081282,1.3,19.72131766723492,0.00044084034
196.12,967.59,30431.0,3.2862e-05,-1.9996,1.18,76.901,17.647,34.384,850.58,-0.050614,120.94,0.10024,supercritical,Ar,C7440371,argon,150.86,48.9805,13.41,0.07457121551081282,1.3,19.754596216861813,0.00044067942000000003
196.12,969.22,30442.0,3.285e-05,-2.001,1.1829,76.888,17.651,34.378,851.14,-0.050657,121.06,0.10033,supercritical,Ar,C7440371,argon,150.86,48.9805,13.41,0.07457121551081282,1.3,19.787874766488706,0.00044051850000000005
196.12,970.85,30453.0,3.2838e-05,-2.0024,1.1857,76.875,17.655,34.372,851.69,-0.050699,121.19,0.10041,supercritical,Ar,C7440371,argon,150.86,48.9805,13.41,0.07457121551081282,1.3,19.8211533161156,0.00044035758
196.12,972.48,30463.0,3.2826e-05,-2.0037,1.1886,76.862,17.659,34.366,852.25,-0.050742,121.31,0.1005,supercritical,Ar,C7440371,argon,150.86,48.9805,13.41,0.07457121551081282,1.3,19.85443186574249,0.00044019666000000003
196.12,974.11,30474.0,3.2814e-05,-2.0051,1.1914,76.849,17.662,34.359,852.8,-0.050784,121.43,0.10058,supercritical,Ar,C7440371,argon,150.86,48.9805,13.41,0.07457121551081282,1.3,19.887710415369384,0.00044003574000000005
196.12,975.74,30485.0,3.2803e-05,-2.0064,1.1942,76.837,17.666,34.353,853.36,-0.050826,121.56,0.10067,supercritical,Ar,C7440371,argon,150.86,48.9805,13.41,0.07457121551081282,1.3,19.920988964996276,0.00043988823
196.12,977.37,30496.0,3.2791e-05,-2.0078,1.1971,76.824,17.67,34.347,853.91,-0.050867,121.68,0.10075,supercritical,Ar,C7440371,argon,150.86,48.9805,13.41,0.07457121551081282,1.3,19.954267514623165,0.00043972731
196.12,979.0,30507.0,3.2779e-05,-2.0092,1.1999,76.811,17.674,34.341,854.46,-0.050909,121.8,0.10083,supercritical,Ar,C7440371,argon,150.86,48.9805,13.41,0.07457121551081282,1.3,19.987546064250058,0.00043956639