Temperature (K),Pressure (bar),Density (mol/m3),Volume (m3/mol),Internal Energy (kJ/mol),Enthalpy (kJ/mol),Entropy (J/mol*K),Cv (J/mol*K),Cp (J/mol*K),Sound Spd. (m/s),Joule-Thomson (K/bar),Viscosity (uPa*s),Therm. Cond. (W/m*K),Phase,substance,substance_id,substance_name,Tc,Pc,rhoc,Vmc,Tr,Pr,Vmr
1035.2,1413.9,19152.0,5.2214e-05,54.569,61.951,101.61,42.234,72.007,892.03,0.066322,56.967,0.30309,supercritical,H2O,C7732185,water,647.0,220.64,17.9,0.0558659217877095,1.6,6.408176214648297,0.0009346305999999999
1035.2,1421.2,19239.0,5.1977e-05,54.529,61.916,101.54,42.253,72.037,893.81,0.065743,57.078,0.30425,supercritical,H2O,C7732185,water,647.0,220.64,17.9,0.0558659217877095,1.6,6.441261783901378,0.0009303883
1035.2,1428.6,19326.0,5.1744e-05,54.49,61.882,101.47,42.271,72.065,895.59,0.065167,57.189,0.3054,supercritical,H2O,C7732185,water,647.0,220.64,17.9,0.0558659217877095,1.6,6.4748005801305295,0.0009262175999999999
1035.2,1435.9,19413.0,5.1513e-05,54.45,61.847,101.4,42.29,72.093,897.37,0.064597,57.3,0.30655,supercritical,H2O,C7732185,water,647.0,220.64,17.9,0.0558659217877095,1.6,6.507886149383612,0.0009220827
1035.2,1443.3,19499.0,5.1285e-05,54.411,61.813,101.33,42.308,72.119,899.17,0.064031,57.411,0.3077,supercritical,H2O,C7732185,water,647.0,220.64,17.9,0.0558659217877095,1.6,6.541424945612763,0.0009180015
1035.2,1450.6,19585.0,5.1061e-05,54.372,61.779,101.26,42.326,72.144,900.97,0.06347,57.522,0.30884,supercritical,H2O,C7732185,water,647.0,220.64,17.9,0.0558659217877095,1.6,6.574510514865845,0.0009139918999999999
1035.2,1458.0,19670.0,5.0839e-05,54.334,61.746,101.19,42.344,72.168,902.77,0.062913,57.632,0.30998,supercritical,H2O,C7732185,water,647.0,220.64,17.9,0.0558659217877095,1.6,6.608049311094997,0.0009100180999999999
1035.2,1465.3,19755.0,5.062e-05,54.295,61.713,101.13,42.362,72.191,904.58,0.062361,57.743,0.31112,supercritical,H2O,C7732185,water,647.0,220.64,17.9,0.0558659217877095,1.6,6.641134880348078,0.0009060979999999999
1035.2,1472.7,19840.0,5.0403e-05,54.257,61.68,101.06,42.38,72.212,906.39,0.061813,57.853,0.31225,supercritical,H2O,C7732185,water,647.0,220.64,17.9,0.0558659217877095,1.6,6.67467367657723,0.0009022136999999999
1035.2,1480.0,19924.0,5.019e-05,54.219,61.647,100.99,42.397,72.233,908.21,0.06127,57.963,0.31338,supercritical,H2O,C7732185,water,647.0,220.64,17.9,0.0558659217877095,1.6,6.707759245830312,0.000898401
1035.2,1487.4,20008.0,4.9979e-05,54.181,61.615,100.92,42.415,72.253,910.03,0.060731,58.072,0.31451,supercritical,H2O,C7732185,water,647.0,220.64,17.9,0.0558659217877095,1.6,6.741298042059464,0.0008946240999999999
1035.2,1494.7,20092.0,4.9771e-05,54.143,61.583,100.86,42.432,72.271,911.86,0.060197,58.182,0.31563,supercritical,H2O,C7732185,water,647.0,220.64,17.9,0.0558659217877095,1.6,6.774383611312546,0.0008909009
1035.2,1502.1,20176.0,4.9565e-05,54.106,61.551,100.79,42.449,72.289,913.7,0.059667,58.292,0.31675,supercritical,H2O,C7732185,water,647.0,220.64,17.9,0.0558659217877095,1.6,6.807922407541697,0.0008872134999999999
1035.2,1509.4,20259.0,4.9362e-05,54.068,61.519,100.73,42.466,72.306,915.53,0.059142,58.401,0.31787,supercritical,H2O,C7732185,water,647.0,220.64,17.9,0.0558659217877095,1.6,6.84100797679478,0.0008835798
1035.2,1516.8,20341.0,4.9161e-05,54.031,61.488,100.66,42.482,72.321,917.37,0.058621,58.51,0.31899,supercritical,H2O,C7732185,water,647.0,220.64,17.9,0.0558659217877095,1.6,6.874546773023931,0.0008799818999999999
1035.2,1524.1,20424.0,4.8963e-05,53.994,61.457,100.6,42.499,72.336,919.22,0.058104,58.619,0.3201,supercritical,H2O,C7732185,water,647.0,220.64,17.9,0.0558659217877095,1.6,6.9076323422770125,0.0008764376999999999
1035.2,1531.5,20506.0,4.8767e-05,53.958,61.426,100.53,42.515,72.35,921.07,0.057592,58.728,0.3212,supercritical,H2O,C7732185,water,647.0,220.64,17.9,0.0558659217877095,1.6,6.9411711385061645,0.0008729293
1035.2,1538.8,20587.0,4.8574e-05,53.921,61.396,100.47,42.532,72.363,922.92,0.057084,58.836,0.32231,supercritical,H2O,C7732185,water,647.0,220.64,17.9,0.0558659217877095,1.6,6.974256707759246,0.0008694746
1035.2,1546.1,20669.0,4.8383e-05,53.885,61.365,100.4,42.548,72.375,924.78,0.056581,58.945,0.32341,supercritical,H2O,C7732185,water,647.0,220.64,17.9,0.0558659217877095,1.6,7.007342277012328,0.0008660556999999999
1035.2,1553.5,20749.0,4.8194e-05,53.849,61.335,100.34,42.564,72.387,926.64,0.056081,59.053,0.32451,supercritical,H2O,C7732185,water,647.0,220.64,17.9,0.0558659217877095,1.6,7.04088107324148,0.0008626726
1035.2,1560.8,20830.0,4.8007e-05,53.813,61.306,100.28,42.579,72.397,928.5,0.055586,59.161,0.3256,supercritical,H2O,C7732185,water,647.0,220.64,17.9,0.0558659217877095,1.6,7.073966642494561,0.0008593253
1035.2,1568.2,20910.0,4.7823e-05,53.777,61.276,100.22,42.595,72.407,930.37,0.055096,59.269,0.32669,supercritical,H2O,C7732185,water,647.0,220.64,17.9,0.0558659217877095,1.6,7.107505438723713,0.0008560317
1035.2,1575.5,20990.0,4.7641e-05,53.741,61.247,100.15,42.611,72.416,932.24,0.054609,59.377,0.32778,supercritical,H2O,C7732185,water,647.0,220.64,17.9,0.0558659217877095,1.6,7.140591007976795,0.0008527738999999999
1035.2,1582.9,21070.0,4.7461e-05,53.706,61.218,100.09,42.626,72.424,934.11,0.054127,59.484,0.32887,supercritical,H2O,C7732185,water,647.0,220.64,17.9,0.0558659217877095,1.6,7.174129804205947,0.0008495518999999999
1035.2,1590.2,21149.0,4.7283e-05,53.67,61.19,100.03,42.641,72.431,935.99,0.053649,59.592,0.32995,supercritical,H2O,C7732185,water,647.0,220.64,17.9,0.0558659217877095,1.6,7.207215373459029,0.0008463657
1035.2,1597.6,21228.0,4.7107e-05,53.635,61.161,99.969,42.656,72.438,937.87,0.053175,59.699,0.33103,supercritical,H2O,C7732185,water,647.0,220.64,17.9,0.0558659217877095,1.6,7.24075416968818,0.0008432153
1035.2,1604.9,21307.0,4.6934e-05,53.6,61.133,99.909,42.671,72.444,939.75,0.052705,59.806,0.3321,supercritical,H2O,C7732185,water,647.0,220.64,17.9,0.0558659217877095,1.6,7.273839738941263,0.0008401185999999999
1035.2,1612.3,21385.0,4.6762e-05,53.566,61.105,99.848,42.686,72.449,941.63,0.052239,59.913,0.33318,supercritical,H2O,C7732185,water,647.0,220.64,17.9,0.0558659217877095,1.6,7.307378535170414,0.0008370397999999999
1035.2,1619.6,21463.0,4.6592e-05,53.531,61.077,99.788,42.701,72.454,943.51,0.051778,60.02,0.33425,supercritical,H2O,C7732185,water,647.0,220.64,17.9,0.0558659217877095,1.6,7.3404641044234955,0.0008339967999999999
1035.2,1627.0,21540.0,4.6424e-05,53.497,61.05,99.729,42.715,72.457,945.4,0.05132,60.126,0.33531,supercritical,H2O,C7732185,water,647.0,220.64,17.9,0.0558659217877095,1.6,7.3740029006526475,0.0008309896
1035.2,1634.3,21618.0,4.6259e-05,53.462,61.023,99.67,42.73,72.461,947.29,0.050866,60.233,0.33638,supercritical,H2O,C7732185,water,647.0,220.64,17.9,0.0558659217877095,1.6,7.407088469905729,0.0008280360999999999
1035.2,1641.7,21695.0,4.6094e-05,53.428,60.996,99.611,42.744,72.463,949.18,0.050417,60.339,0.33744,supercritical,H2O,C7732185,water,647.0,220.64,17.9,0.0558659217877095,1.6,7.440627266134881,0.0008250826
1035.2,1649.0,21771.0,4.5932e-05,53.395,60.969,99.552,42.758,72.465,951.08,0.049971,60.445,0.33849,supercritical,H2O,C7732185,water,647.0,220.64,17.9,0.0558659217877095,1.6,7.473712835387963,0.0008221827999999999
1035.2,1656.4,21847.0,4.5772e-05,53.361,60.942,99.494,42.773,72.467,952.97,0.049529,60.551,0.33955,supercritical,H2O,C7732185,water,647.0,220.64,17.9,0.0558659217877095,1.6,7.507251631617114,0.0008193187999999999
1035.2,1663.7,21923.0,4.5613e-05,53.327,60.916,99.436,42.787,72.467,954.87,0.049091,60.656,0.3406,supercritical,H2O,C7732185,water,647.0,220.64,17.9,0.0558659217877095,1.6,7.540337200870196,0.0008164727
1035.2,1671.1,21999.0,4.5457e-05,53.294,60.89,99.379,42.8,72.467,956.77,0.048657,60.762,0.34164,supercritical,H2O,C7732185,water,647.0,220.64,17.9,0.0558659217877095,1.6,7.573875997099347,0.0008136803
1035.2,1678.4,22074.0,4.5302e-05,53.261,60.864,99.322,42.814,72.467,958.67,0.048227,60.867,0.34269,supercritical,H2O,C7732185,water,647.0,220.64,17.9,0.0558659217877095,1.6,7.60696156635243,0.0008109058
1035.2,1685.8,22149.0,4.5148e-05,53.228,60.839,99.265,42.828,72.466,960.57,0.047801,60.973,0.34373,supercritical,H2O,C7732185,water,647.0,220.64,17.9,0.0558659217877095,1.6,7.640500362581581,0.0008081491999999999
1035.2,1693.1,22224.0,4.4997e-05,53.195,60.813,99.209,42.841,72.465,962.47,0.047378,61.078,0.34477,supercritical,H2O,C7732185,water,647.0,220.64,17.9,0.0558659217877095,1.6,7.673585931834663,0.0008054463
1035.2,1700.5,22298.0,4.4847e-05,53.162,60.788,99.152,42.855,72.463,964.37,0.04696,61.182,0.3458,supercritical,H2O,C7732185,water,647.0,220.64,17.9,0.0558659217877095,1.6,7.707124728063815,0.0008027612999999999
1035.2,1707.8,22372.0,4.4698e-05,53.13,60.763,99.097,42.868,72.46,966.28,0.046544,61.287,0.34683,supercritical,H2O,C7732185,water,647.0,220.64,17.9,0.0558659217877095,1.6,7.740210297316897,0.0008000942
1035.2,1715.2,22446.0,4.4552e-05,53.097,60.739,99.041,42.881,72.457,968.18,0.046133,61.392,0.34786,supercritical,H2O,C7732185,water,647.0,220.64,17.9,0.0558659217877095,1.6,7.773749093546049,0.0007974808
1035.2,1722.5,22519.0,4.4407e-05,53.065,60.714,98.986,42.895,72.454,970.09,0.045725,61.496,0.34889,supercritical,H2O,C7732185,water,647.0,220.64,17.9,0.0558659217877095,1.6,7.8068346627991305,0.0007948852999999999
1035.2,1729.9,22592.0,4.4263e-05,53.033,60.69,98.931,42.908,72.45,971.99,0.045321,61.6,0.34991,supercritical,H2O,C7732185,water,647.0,220.64,17.9,0.0558659217877095,1.6,7.8403734590282825,0.0007923076999999999
1035.2,1737.2,22665.0,4.4121e-05,53.001,60.666,98.876,42.921,72.446,973.9,0.044921,61.704,0.35093,supercritical,H2O,C7732185,water,647.0,220.64,17.9,0.0558659217877095,1.6,7.873459028281364,0.0007897659
1035.2,1744.6,22737.0,4.398e-05,52.97,60.642,98.822,42.933,72.441,975.81,0.044524,61.808,0.35195,supercritical,H2O,C7732185,water,647.0,220.64,17.9,0.0558659217877095,1.6,7.906997824510515,0.000787242
1035.2,1751.9,22810.0,4.3841e-05,52.938,60.619,98.768,42.946,72.436,977.71,0.04413,61.912,0.35296,supercritical,H2O,C7732185,water,647.0,220.64,17.9,0.0558659217877095,1.6,7.940083393763597,0.0007847539
1035.2,1759.3,22881.0,4.3704e-05,52.907,60.595,98.715,42.959,72.43,979.62,0.04374,62.015,0.35398,supercritical,H2O,C7732185,water,647.0,220.64,17.9,0.0558659217877095,1.6,7.973622189992748,0.0007823016
1035.2,1766.6,22953.0,4.3567e-05,52.875,60.572,98.661,42.971,72.424,981.53,0.043354,62.119,0.35499,supercritical,H2O,C7732185,water,647.0,220.64,17.9,0.0558659217877095,1.6,8.006707759245831,0.0007798492999999999
1035.2,1773.9,23024.0,4.3433e-05,52.844,60.549,98.608,42.984,72.418,983.44,0.042971,62.222,0.35599,supercritical,H2O,C7732185,water,647.0,220.64,17.9,0.0558659217877095,1.6,8.039793328498913,0.0007774507
1035.2,1781.3,23095.0,4.3299e-05,52.813,60.526,98.555,42.996,72.411,985.35,0.042591,62.325,0.35699,supercritical,H2O,C7732185,water,647.0,220.64,17.9,0.0558659217877095,1.6,8.073332124728065,0.0007750521
1035.2,1788.6,23166.0,4.3167e-05,52.783,60.504,98.503,43.008,72.404,987.25,0.042215,62.428,0.35799,supercritical,H2O,C7732185,water,647.0,220.64,17.9,0.0558659217877095,1.6,8.106417693981145,0.0007726893
1035.2,1796.0,23236.0,4.3037e-05,52.752,60.481,98.451,43.021,72.396,989.16,0.041842,62.531,0.35899,supercritical,H2O,C7732185,water,647.0,220.64,17.9,0.0558659217877095,1.6,8.139956490210297,0.0007703623
1035.2,1803.3,23306.0,4.2908e-05,52.722,60.459,98.399,43.033,72.388,991.07,0.041473,62.633,0.35999,supercritical,H2O,C7732185,water,647.0,220.64,17.9,0.0558659217877095,1.6,8.173042059463379,0.0007680532000000001
1035.2,1810.7,23376.0,4.278e-05,52.691,60.437,98.347,43.045,72.38,992.98,0.041107,62.736,0.36098,supercritical,H2O,C7732185,water,647.0,220.64,17.9,0.0558659217877095,1.6,8.20658085569253,0.0007657619999999999
1035.2,1818.0,23445.0,4.2653e-05,52.661,60.416,98.296,43.057,72.372,994.88,0.040744,62.838,0.36197,supercritical,H2O,C7732185,water,647.0,220.64,17.9,0.0558659217877095,1.6,8.239666424945613,0.0007634886999999999
1035.2,1825.4,23514.0,4.2528e-05,52.631,60.394,98.245,43.069,72.363,996.79,0.040384,62.94,0.36295,supercritical,H2O,C7732185,water,647.0,220.64,17.9,0.0558659217877095,1.6,8.273205221174765,0.0007612511999999999
1035.2,1832.7,23583.0,4.2403e-05,52.601,60.373,98.194,43.08,72.353,998.69,0.040028,63.042,0.36394,supercritical,H2O,C7732185,water,647.0,220.64,17.9,0.0558659217877095,1.6,8.306290790427846,0.0007590136999999999
1035.2,1840.1,23652.0,4.2281e-05,52.571,60.351,98.143,43.092,72.344,1000.6,0.039674,63.143,0.36492,supercritical,H2O,C7732185,water,647.0,220.64,17.9,0.0558659217877095,1.6,8.339829586656998,0.0007568298999999999
1035.2,1847.4,23720.0,4.2159e-05,52.542,60.33,98.093,43.104,72.334,1002.5,0.039324,63.245,0.3659,supercritical,H2O,C7732185,water,647.0,220.64,17.9,0.0558659217877095,1.6,8.37291515591008,0.0007546461
1035.2,1854.8,23788.0,4.2038e-05,52.512,60.31,98.043,43.115,72.324,1004.4,0.038977,63.347,0.36687,supercritical,H2O,C7732185,water,647.0,220.64,17.9,0.0558659217877095,1.6,8.406453952139232,0.0007524802
1035.2,1862.1,23855.0,4.1919e-05,52.483,60.289,97.993,43.127,72.314,1006.3,0.038633,63.448,0.36784,supercritical,H2O,C7732185,water,647.0,220.64,17.9,0.0558659217877095,1.6,8.439539521392314,0.0007503501
1035.2,1869.5,23923.0,4.1801e-05,52.454,60.269,97.944,43.138,72.303,1008.2,0.038292,63.549,0.36881,supercritical,H2O,C7732185,water,647.0,220.64,17.9,0.0558659217877095,1.6,8.473078317621466,0.0007482379
1035.2,1876.8,23990.0,4.1684e-05,52.425,60.248,97.895,43.149,72.292,1010.1,0.037955,63.65,0.36978,supercritical,H2O,C7732185,water,647.0,220.64,17.9,0.0558659217877095,1.6,8.506163886874548,0.0007461436
1035.2,1884.2,24057.0,4.1568e-05,52.396,60.228,97.846,43.161,72.281,1012.0,0.03762,63.751,0.37075,supercritical,H2O,C7732185,water,647.0,220.64,17.9,0.0558659217877095,1.6,8.5397026831037,0.0007440671999999999
1035.2,1891.5,24123.0,4.1454e-05,52.367,60.208,97.797,43.172,72.27,1013.9,0.037288,63.851,0.37171,supercritical,H2O,C7732185,water,647.0,220.64,17.9,0.0558659217877095,1.6,8.57278825235678,0.0007420266
1035.2,1898.9,24190.0,4.134e-05,52.339,60.189,97.749,43.183,72.258,1015.8,0.036959,63.952,0.37267,supercritical,H2O,C7732185,water,647.0,220.64,17.9,0.0558659217877095,1.6,8.606327048585932,0.000739986
1035.2,1906.2,24256.0,4.1228e-05,52.31,60.169,97.701,43.194,72.246,1017.7,0.036633,64.052,0.37363,supercritical,H2O,C7732185,water,647.0,220.64,17.9,0.0558659217877095,1.6,8.639412617839014,0.0007379811999999999
1035.2,1913.6,24321.0,4.1116e-05,52.282,60.15,97.653,43.205,72.234,1019.6,0.03631,64.153,0.37458,supercritical,H2O,C7732185,water,647.0,220.64,17.9,0.0558659217877095,1.6,8.672951414068166,0.0007359763999999999
1035.2,1920.9,24387.0,4.1006e-05,52.254,60.131,97.605,43.216,72.222,1021.5,0.035989,64.253,0.37553,supercritical,H2O,C7732185,water,647.0,220.64,17.9,0.0558659217877095,1.6,8.706036983321248,0.0007340074
1035.2,1928.3,24452.0,4.0896e-05,52.226,60.112,97.558,43.227,72.21,1023.4,0.035672,64.352,0.37648,supercritical,H2O,C7732185,water,647.0,220.64,17.9,0.0558659217877095,1.6,8.7395757795504,0.0007320384
1035.2,1935.6,24517.0,4.0788e-05,52.198,60.093,97.51,43.237,72.197,1025.3,0.035357,64.452,0.37743,supercritical,H2O,C7732185,water,647.0,220.64,17.9,0.0558659217877095,1.6,8.772661348803481,0.0007301052000000001
1035.2,1943.0,24582.0,4.0681e-05,52.17,60.074,97.463,43.248,72.184,1027.2,0.035045,64.552,0.37838,supercritical,H2O,C7732185,water,647.0,220.64,17.9,0.0558659217877095,1.6,8.806200145032633,0.0007281898999999999
1035.2,1950.3,24646.0,4.0575e-05,52.142,60.056,97.417,43.259,72.171,1029.0,0.034736,64.651,0.37932,supercritical,H2O,C7732185,water,647.0,220.64,17.9,0.0558659217877095,1.6,8.839285714285715,0.0007262924999999999
1035.2,1957.7,24710.0,4.0469e-05,52.115,60.037,97.37,43.269,72.158,1030.9,0.03443,64.751,0.38026,supercritical,H2O,C7732185,water,647.0,220.64,17.9,0.0558659217877095,1.6,8.872824510514867,0.0007243951
1035.2,1965.0,24774.0,4.0365e-05,52.087,60.019,97.324,43.28,72.144,1032.8,0.034126,64.85,0.3812,supercritical,H2O,C7732185,water,647.0,220.64,17.9,0.0558659217877095,1.6,8.90591007976795,0.0007225334999999999
1035.2,1972.4,24838.0,4.0261e-05,52.06,60.001,97.278,43.29,72.131,1034.7,0.033825,64.949,0.38213,supercritical,H2O,C7732185,water,647.0,220.64,17.9,0.0558659217877095,1.6,8.939448875997101,0.0007206719
1035.2,1979.7,24901.0,4.0159e-05,52.033,59.983,97.232,43.301,72.117,1036.6,0.033526,65.048,0.38307,supercritical,H2O,C7732185,water,647.0,220.64,17.9,0.0558659217877095,1.6,8.972534445250181,0.0007188460999999999
1035.2,1987.1,24964.0,4.0058e-05,52.006,59.965,97.187,43.311,72.103,1038.5,0.03323,65.146,0.384,supercritical,H2O,C7732185,water,647.0,220.64,17.9,0.0558659217877095,1.6,9.006073241479333,0.0007170382
1035.2,1994.4,25027.0,3.9957e-05,51.979,59.948,97.141,43.321,72.089,1040.3,0.032937,65.245,0.38493,supercritical,H2O,C7732185,water,647.0,220.64,17.9,0.0558659217877095,1.6,9.039158810732415,0.0007152302999999999
1035.2,2001.7,25090.0,3.9857e-05,51.952,59.931,97.096,43.332,72.075,1042.2,0.032646,65.343,0.38585,supercritical,H2O,C7732185,water,647.0,220.64,17.9,0.0558659217877095,1.6,9.072244379985497,0.0007134403
1035.2,2009.1,25152.0,3.9759e-05,51.925,59.913,97.051,43.342,72.06,1044.1,0.032358,65.442,0.38678,supercritical,H2O,C7732185,water,647.0,220.64,17.9,0.0558659217877095,1.6,9.105783176214649,0.0007116861
1035.2,2016.4,25214.0,3.9661e-05,51.899,59.896,97.007,43.352,72.046,1046.0,0.032072,65.54,0.3877,supercritical,H2O,C7732185,water,647.0,220.64,17.9,0.0558659217877095,1.6,9.13886874546773,0.0007099318999999999
1035.2,2023.8,25276.0,3.9564e-05,51.873,59.879,96.962,43.362,72.031,1047.8,0.031789,65.638,0.38862,supercritical,H2O,C7732185,water,647.0,220.64,17.9,0.0558659217877095,1.6,9.172407541696883,0.0007081956
1035.2,2031.1,25337.0,3.9467e-05,51.846,59.863,96.918,43.372,72.016,1049.7,0.031508,65.736,0.38953,supercritical,H2O,C7732185,water,647.0,220.64,17.9,0.0558659217877095,1.6,9.205493110949964,0.0007064593
1035.2,2038.5,25399.0,3.9372e-05,51.82,59.846,96.874,43.382,72.001,1051.6,0.03123,65.833,0.39045,supercritical,H2O,C7732185,water,647.0,220.64,17.9,0.0558659217877095,1.6,9.239031907179116,0.0007047587999999999
1035.2,2045.8,25460.0,3.9278e-05,51.794,59.83,96.83,43.392,71.986,1053.4,0.030954,65.931,0.39136,supercritical,H2O,C7732185,water,647.0,220.64,17.9,0.0558659217877095,1.6,9.272117476432198,0.0007030761999999999
1035.2,2053.2,25521.0,3.9184e-05,51.768,59.813,96.787,43.402,71.971,1055.3,0.03068,66.028,0.39227,supercritical,H2O,C7732185,water,647.0,220.64,17.9,0.0558659217877095,1.6,9.305656272661349,0.0007013936
1035.2,2060.5,25581.0,3.9091e-05,51.742,59.797,96.743,43.411,71.956,1057.1,0.030408,66.126,0.39318,supercritical,H2O,C7732185,water,647.0,220.64,17.9,0.0558659217877095,1.6,9.338741841914432,0.0006997289
1035.2,2067.9,25642.0,3.8999e-05,51.717,59.781,96.7,43.421,71.94,1059.0,0.030139,66.223,0.39409,supercritical,H2O,C7732185,water,647.0,220.64,17.9,0.0558659217877095,1.6,9.372280638143584,0.0006980820999999999
1035.2,2075.2,25702.0,3.8908e-05,51.691,59.765,96.657,43.431,71.925,1060.8,0.029873,66.32,0.39499,supercritical,H2O,C7732185,water,647.0,220.64,17.9,0.0558659217877095,1.6,9.405366207396664,0.0006964531999999999
1035.2,2082.6,25762.0,3.8817e-05,51.666,59.75,96.614,43.44,71.909,1062.7,0.029608,66.417,0.3959,supercritical,H2O,C7732185,water,647.0,220.64,17.9,0.0558659217877095,1.6,9.438905003625816,0.0006948242999999999
1035.2,2089.9,25821.0,3.8728e-05,51.64,59.734,96.572,43.45,71.893,1064.5,0.029346,66.514,0.3968,supercritical,H2O,C7732185,water,647.0,220.64,17.9,0.0558659217877095,1.6,9.471990572878898,0.0006932312
1035.2,2097.3,25881.0,3.8639e-05,51.615,59.719,96.529,43.46,71.877,1066.4,0.029086,66.61,0.39769,supercritical,H2O,C7732185,water,647.0,220.64,17.9,0.0558659217877095,1.6,9.50552936910805,0.0006916381
1035.2,2104.6,25940.0,3.855e-05,51.59,59.703,96.487,43.469,71.861,1068.2,0.028828,66.707,0.39859,supercritical,H2O,C7732185,water,647.0,220.64,17.9,0.0558659217877095,1.6,9.538614938361132,0.000690045