Temperature (K),Pressure (bar),Density (mol/m3),Volume (m3/mol),Internal Energy (kJ/mol),Enthalpy (kJ/mol),Entropy (J/mol*K),Cv (J/mol*K),Cp (J/mol*K),Sound Spd. (m/s),Joule-Thomson (K/bar),Viscosity (uPa*s),Therm. Cond. (W/m*K),Phase,substance,substance_id,substance_name,Tc,Pc,rhoc,Vmc,Tr,Pr,Vmr
970.5,3.0,37.212,0.026873,62.597,70.659,159.04,32.608,40.974,749.55,0.26015,36.473,0.092072,vapor,H2O,C7732185,water,647.0,220.64,17.9,0.0558659217877095,1.5,0.01359680928208847,0.4810267
970.5,10.348,128.64,0.0077739,62.536,70.58,148.69,32.689,41.182,748.9,0.25972,36.505,0.0926,vapor,H2O,C7732185,water,647.0,220.64,17.9,0.0558659217877095,1.5,0.04689992748368384,0.13915281
970.5,17.697,220.46,0.004536,62.474,70.502,144.16,32.771,41.393,748.26,0.25927,36.539,0.093135,vapor,H2O,C7732185,water,647.0,220.64,17.9,0.0558659217877095,1.5,0.08020757795503988,0.0811944
970.5,25.045,312.68,0.0031982,62.413,70.423,141.21,32.852,41.605,747.61,0.25879,36.574,0.093678,vapor,H2O,C7732185,water,647.0,220.64,17.9,0.0558659217877095,1.5,0.11351069615663525,0.05724778
970.5,32.393,405.31,0.0024673,62.351,70.343,139.01,32.934,41.82,746.96,0.25831,36.609,0.094228,vapor,H2O,C7732185,water,647.0,220.64,17.9,0.0558659217877095,1.5,0.14681381435823063,0.044164669999999996
970.5,39.742,498.34,0.0020066,62.289,70.264,137.24,33.016,42.037,746.32,0.2578,36.647,0.094785,vapor,H2O,C7732185,water,647.0,220.64,17.9,0.0558659217877095,1.5,0.18012146482958666,0.035918139999999994
970.5,47.09,591.79,0.0016898,62.227,70.184,135.77,33.098,42.257,745.67,0.25728,36.685,0.09535,vapor,H2O,C7732185,water,647.0,220.64,17.9,0.0558659217877095,1.5,0.21342458303118206,0.030247419999999997
970.5,54.438,685.66,0.0014585,62.165,70.104,134.5,33.181,42.478,745.03,0.25674,36.724,0.095923,vapor,H2O,C7732185,water,647.0,220.64,17.9,0.0558659217877095,1.5,0.2467277012327774,0.026107149999999996
970.5,61.787,779.95,0.0012821,62.102,70.024,133.38,33.264,42.702,744.39,0.25618,36.765,0.096503,vapor,H2O,C7732185,water,647.0,220.64,17.9,0.0558659217877095,1.5,0.28003535170413346,0.02294959
970.5,69.135,874.66,0.0011433,62.039,69.943,132.38,33.347,42.928,743.75,0.2556,36.806,0.097091,vapor,H2O,C7732185,water,647.0,220.64,17.9,0.0558659217877095,1.5,0.31333846990572883,0.020465070000000002
970.5,76.483,969.79,0.0010311,61.976,69.863,131.48,33.43,43.156,743.12,0.25501,36.849,0.097687,vapor,H2O,C7732185,water,647.0,220.64,17.9,0.0558659217877095,1.5,0.3466415881073242,0.01845669
970.5,83.832,1065.4,0.00093865,61.913,69.782,130.65,33.514,43.387,742.49,0.2544,36.893,0.09829,vapor,H2O,C7732185,water,647.0,220.64,17.9,0.0558659217877095,1.5,0.3799492385786802,0.016801834999999998
970.5,91.18,1161.4,0.00086105,61.849,69.7,129.88,33.597,43.619,741.86,0.25378,36.939,0.098902,vapor,H2O,C7732185,water,647.0,220.64,17.9,0.0558659217877095,1.5,0.4132523567802756,0.015412795
970.5,98.528,1257.8,0.00079503,61.786,69.619,129.17,33.681,43.854,741.24,0.25313,36.985,0.099522,vapor,H2O,C7732185,water,647.0,220.64,17.9,0.0558659217877095,1.5,0.446555474981871,0.014231036999999998
970.5,105.88,1354.7,0.00073817,61.722,69.537,128.51,33.765,44.092,740.62,0.25247,37.033,0.10015,vapor,H2O,C7732185,water,647.0,220.64,17.9,0.0558659217877095,1.5,0.47987672226250905,0.013213243
970.5,113.23,1452.0,0.00068869,61.658,69.455,127.89,33.849,44.331,740.01,0.25179,37.082,0.10079,vapor,H2O,C7732185,water,647.0,220.64,17.9,0.0558659217877095,1.5,0.5131889050036259,0.012327551
970.5,120.57,1549.8,0.00064525,61.593,69.373,127.3,33.933,44.572,739.4,0.2511,37.132,0.10143,vapor,H2O,C7732185,water,647.0,220.64,17.9,0.0558659217877095,1.5,0.5464557650471356,0.011549974999999999
970.5,127.92,1648.0,0.00060679,61.529,69.291,126.74,34.018,44.816,738.8,0.25039,37.183,0.10208,vapor,H2O,C7732185,water,647.0,220.64,17.9,0.0558659217877095,1.5,0.5797679477882524,0.010861540999999999
970.5,135.27,1746.7,0.00057251,61.464,69.208,126.21,34.102,45.062,738.2,0.24966,37.235,0.10275,vapor,H2O,C7732185,water,647.0,220.64,17.9,0.0558659217877095,1.5,0.6130801305293692,0.010247929
970.5,142.62,1845.8,0.00054176,61.399,69.126,125.7,34.187,45.31,737.61,0.24891,37.289,0.10342,vapor,H2O,C7732185,water,647.0,220.64,17.9,0.0558659217877095,1.5,0.646392313270486,0.009697504
970.5,149.97,1945.4,0.00051403,61.334,69.043,125.21,34.272,45.561,737.03,0.24815,37.344,0.1041,vapor,H2O,C7732185,water,647.0,220.64,17.9,0.0558659217877095,1.5,0.6797044960116027,0.009201136999999998
970.5,157.32,2045.5,0.00048888,61.269,68.959,124.75,34.357,45.813,736.45,0.24738,37.4,0.10478,vapor,H2O,C7732185,water,647.0,220.64,17.9,0.0558659217877095,1.5,0.7130166787527193,0.008750952
970.5,164.66,2146.0,0.00046598,61.203,68.876,124.3,34.442,46.068,735.89,0.24658,37.457,0.10548,vapor,H2O,C7732185,water,647.0,220.64,17.9,0.0558659217877095,1.5,0.7462835387962292,0.008341042
970.5,172.01,2247.0,0.00044504,61.137,68.792,123.87,34.527,46.324,735.32,0.24577,37.516,0.10619,vapor,H2O,C7732185,water,647.0,220.64,17.9,0.0558659217877095,1.5,0.7795957215373459,0.007966216
970.5,179.36,2348.4,0.00042582,61.071,68.709,123.46,34.612,46.583,734.77,0.24495,37.576,0.1069,vapor,H2O,C7732185,water,647.0,220.64,17.9,0.0558659217877095,1.5,0.8129079042784627,0.007622177999999999
970.5,186.71,2450.3,0.00040811,61.005,68.625,123.05,34.697,46.844,734.23,0.24411,37.637,0.10762,vapor,H2O,C7732185,water,647.0,220.64,17.9,0.0558659217877095,1.5,0.8462200870195795,0.007305168999999999
970.5,194.06,2552.7,0.00039174,60.939,68.541,122.66,34.782,47.107,733.69,0.24325,37.699,0.10836,vapor,H2O,C7732185,water,647.0,220.64,17.9,0.0558659217877095,1.5,0.8795322697606962,0.0070121459999999995
970.5,201.41,2655.6,0.00037656,60.872,68.456,122.29,34.867,47.372,733.16,0.24237,37.762,0.1091,vapor,H2O,C7732185,water,647.0,220.64,17.9,0.0558659217877095,1.5,0.9128444525018129,0.006740424
970.5,208.75,2758.9,0.00036246,60.805,68.372,121.92,34.952,47.64,732.65,0.24149,37.827,0.10985,vapor,H2O,C7732185,water,647.0,220.64,17.9,0.0558659217877095,1.5,0.9461113125453228,0.006488033999999999
970.5,216.1,2862.8,0.00034931,60.739,68.287,121.56,35.037,47.909,732.14,0.24058,37.893,0.11061,vapor,H2O,C7732185,water,647.0,220.64,17.9,0.0558659217877095,1.5,0.9794234952864395,0.006252648999999999
970.5,223.45,2967.0,0.00033704,60.671,68.203,121.22,35.122,48.18,731.64,0.23966,37.96,0.11138,vapor,H2O,C7732185,water,647.0,220.64,17.9,0.0558659217877095,1.5,1.0127356780275563,0.0060330159999999996
970.5,223.45,2967.0,0.00033704,60.671,68.203,121.22,35.122,48.18,731.64,0.23966,37.96,0.11138,supercritical,H2O,C7732185,water,647.0,220.64,17.9,0.0558659217877095,1.5,1.0127356780275563,0.0060330159999999996
970.5,230.8,3071.8,0.00032554,60.604,68.118,120.88,35.207,48.453,731.16,0.23873,38.028,0.11216,supercritical,H2O,C7732185,water,647.0,220.64,17.9,0.0558659217877095,1.5,1.0460478607686732,0.005827165999999999
970.5,238.15,3177.1,0.00031476,60.537,68.033,120.55,35.293,48.728,730.68,0.23778,38.098,0.11295,supercritical,H2O,C7732185,water,647.0,220.64,17.9,0.0558659217877095,1.5,1.0793600435097899,0.005634203999999999
970.5,245.49,3282.8,0.00030462,60.469,67.947,120.23,35.378,49.005,730.22,0.23682,38.169,0.11375,supercritical,H2O,C7732185,water,647.0,220.64,17.9,0.0558659217877095,1.5,1.1126269035532996,0.005452698
970.5,252.84,3389.0,0.00029507,60.401,67.862,119.91,35.463,49.284,729.77,0.23584,38.241,0.11456,supercritical,H2O,C7732185,water,647.0,220.64,17.9,0.0558659217877095,1.5,1.1459390862944163,0.005281752999999999
970.5,260.19,3495.7,0.00028607,60.333,67.776,119.6,35.547,49.564,729.33,0.23485,38.314,0.11538,supercritical,H2O,C7732185,water,647.0,220.64,17.9,0.0558659217877095,1.5,1.179251269035533,0.005120652999999999
970.5,267.54,3602.8,0.00027756,60.265,67.691,119.3,35.632,49.847,728.9,0.23384,38.389,0.11621,supercritical,H2O,C7732185,water,647.0,220.64,17.9,0.0558659217877095,1.5,1.21256345177665,0.004968324
970.5,274.89,3710.5,0.00026951,60.197,67.605,119.01,35.717,50.131,728.48,0.23282,38.465,0.11705,supercritical,H2O,C7732185,water,647.0,220.64,17.9,0.0558659217877095,1.5,1.2458756345177666,0.004824228999999999
970.5,282.24,3818.6,0.00026188,60.128,67.519,118.72,35.801,50.417,728.08,0.23179,38.542,0.1179,supercritical,H2O,C7732185,water,647.0,220.64,17.9,0.0558659217877095,1.5,1.2791878172588833,0.004687652
970.5,289.58,3927.2,0.00025464,60.06,67.433,118.43,35.886,50.705,727.69,0.23074,38.62,0.11876,supercritical,H2O,C7732185,water,647.0,220.64,17.9,0.0558659217877095,1.5,1.312454677302393,0.0045580559999999996
970.5,296.93,4036.3,0.00024775,59.991,67.347,118.15,35.97,50.994,727.32,0.22968,38.7,0.11963,supercritical,H2O,C7732185,water,647.0,220.64,17.9,0.0558659217877095,1.5,1.34576686004351,0.004434725
970.5,304.28,4145.8,0.00024121,59.922,67.261,117.88,36.054,51.285,726.96,0.22861,38.781,0.12051,supercritical,H2O,C7732185,water,647.0,220.64,17.9,0.0558659217877095,1.5,1.3790790427846265,0.004317659
970.5,311.63,4255.8,0.00023497,59.853,67.175,117.61,36.138,51.577,726.61,0.22752,38.863,0.1214,supercritical,H2O,C7732185,water,647.0,220.64,17.9,0.0558659217877095,1.5,1.4123912255257434,0.004205963
970.5,318.98,4366.3,0.00022903,59.783,67.089,117.35,36.222,51.871,726.28,0.22643,38.946,0.1223,supercritical,H2O,C7732185,water,647.0,220.64,17.9,0.0558659217877095,1.5,1.4457034082668603,0.004099637
970.5,326.33,4477.3,0.00022335,59.714,67.002,117.09,36.306,52.166,725.96,0.22532,39.031,0.12321,supercritical,H2O,C7732185,water,647.0,220.64,17.9,0.0558659217877095,1.5,1.4790155910079767,0.003997965
970.5,333.67,4588.7,0.00021792,59.644,66.916,116.83,36.389,52.463,725.66,0.2242,39.116,0.12413,supercritical,H2O,C7732185,water,647.0,220.64,17.9,0.0558659217877095,1.5,1.5122824510514867,0.0039007679999999998
970.5,341.02,4700.7,0.00021274,59.575,66.83,116.58,36.472,52.761,725.37,0.22306,39.203,0.12506,supercritical,H2O,C7732185,water,647.0,220.64,17.9,0.0558659217877095,1.5,1.5455946337926034,0.003808046
970.5,348.37,4813.0,0.00020777,59.505,66.743,116.33,36.555,53.06,725.1,0.22192,39.292,0.12601,supercritical,H2O,C7732185,water,647.0,220.64,17.9,0.0558659217877095,1.5,1.5789068165337201,0.0037190829999999998
970.5,355.72,4925.9,0.00020301,59.435,66.657,116.08,36.638,53.361,724.84,0.22076,39.381,0.12696,supercritical,H2O,C7732185,water,647.0,220.64,17.9,0.0558659217877095,1.5,1.612218999274837,0.0036338789999999996
970.5,363.07,5039.2,0.00019845,59.365,66.57,115.84,36.721,53.663,724.6,0.2196,39.472,0.12792,supercritical,H2O,C7732185,water,647.0,220.64,17.9,0.0558659217877095,1.5,1.6455311820159537,0.003552255
970.5,370.42,5152.9,0.00019406,59.295,66.483,115.6,36.803,53.965,724.38,0.21842,39.564,0.1289,supercritical,H2O,C7732185,water,647.0,220.64,17.9,0.0558659217877095,1.5,1.6788433647570704,0.0034736739999999995
970.5,377.76,5267.1,0.00018986,59.225,66.397,115.37,36.885,54.269,724.17,0.21724,39.657,0.12988,supercritical,H2O,C7732185,water,647.0,220.64,17.9,0.0558659217877095,1.5,1.7121102248005802,0.0033984939999999997
970.5,385.11,5381.8,0.00018581,59.154,66.31,115.14,36.966,54.574,723.99,0.21604,39.751,0.13088,supercritical,H2O,C7732185,water,647.0,220.64,17.9,0.0558659217877095,1.5,1.745422407541697,0.003325999
970.5,392.46,5496.9,0.00018192,59.084,66.223,114.91,37.048,54.88,723.81,0.21483,39.847,0.13189,supercritical,H2O,C7732185,water,647.0,220.64,17.9,0.0558659217877095,1.5,1.7787345902828136,0.0032563679999999995
970.5,399.81,5612.5,0.00017817,59.013,66.137,114.68,37.129,55.187,723.66,0.21362,39.944,0.1329,supercritical,H2O,C7732185,water,647.0,220.64,17.9,0.0558659217877095,1.5,1.8120467730239305,0.003189243
970.5,407.16,5728.5,0.00017457,58.943,66.05,114.46,37.209,55.494,723.52,0.2124,40.042,0.13393,supercritical,H2O,C7732185,water,647.0,220.64,17.9,0.0558659217877095,1.5,1.8453589557650474,0.0031248029999999998
970.5,414.51,5844.9,0.00017109,58.872,65.964,114.24,37.29,55.802,723.41,0.21117,40.141,0.13497,supercritical,H2O,C7732185,water,647.0,220.64,17.9,0.0558659217877095,1.5,1.8786711385061639,0.0030625109999999995
970.5,421.86,5961.7,0.00016774,58.801,65.877,114.02,37.37,56.111,723.31,0.20992,40.241,0.13602,supercritical,H2O,C7732185,water,647.0,220.64,17.9,0.0558659217877095,1.5,1.9119833212472808,0.0030025459999999996
970.5,429.2,6079.0,0.0001645,58.73,65.791,113.81,37.449,56.42,723.23,0.20868,40.343,0.13708,supercritical,H2O,C7732185,water,647.0,220.64,17.9,0.0558659217877095,1.5,1.9452501812907905,0.0029445499999999998
970.5,436.55,6196.7,0.00016138,58.659,65.704,113.6,37.528,56.73,723.16,0.20742,40.446,0.13815,supercritical,H2O,C7732185,water,647.0,220.64,17.9,0.0558659217877095,1.5,1.9785623640319074,0.002888702
970.5,443.9,6314.8,0.00015836,58.588,65.618,113.39,37.607,57.041,723.12,0.20616,40.549,0.13923,supercritical,H2O,C7732185,water,647.0,220.64,17.9,0.0558659217877095,1.5,2.011874546773024,0.002834644
970.5,451.25,6433.3,0.00015544,58.517,65.531,113.18,37.686,57.351,723.1,0.20489,40.654,0.14032,supercritical,H2O,C7732185,water,647.0,220.64,17.9,0.0558659217877095,1.5,2.045186729514141,0.0027823759999999996
970.5,458.6,6552.3,0.00015262,58.446,65.445,112.97,37.764,57.662,723.09,0.20361,40.761,0.14142,supercritical,H2O,C7732185,water,647.0,220.64,17.9,0.0558659217877095,1.5,2.0784989122552577,0.002731898
970.5,465.95,6671.6,0.00014989,58.375,65.359,112.77,37.841,57.973,723.11,0.20233,40.868,0.14253,supercritical,H2O,C7732185,water,647.0,220.64,17.9,0.0558659217877095,1.5,2.111811094996374,0.002683031
970.5,473.29,6791.3,0.00014725,58.303,65.273,112.57,37.919,58.284,723.14,0.20104,40.977,0.14366,supercritical,H2O,C7732185,water,647.0,220.64,17.9,0.0558659217877095,1.5,2.145077955039884,0.002635775
970.5,480.64,6911.4,0.00014469,58.232,65.186,112.37,37.995,58.595,723.19,0.19975,41.086,0.14479,supercritical,H2O,C7732185,water,647.0,220.64,17.9,0.0558659217877095,1.5,2.1783901377810007,0.0025899509999999996
970.5,487.99,7031.8,0.00014221,58.161,65.101,112.17,38.072,58.907,723.27,0.19845,41.197,0.14594,supercritical,H2O,C7732185,water,647.0,220.64,17.9,0.0558659217877095,1.5,2.2117023205221176,0.002545559
970.5,495.34,7152.6,0.00013981,58.089,65.015,111.98,38.148,59.218,723.36,0.19715,41.309,0.14709,supercritical,H2O,C7732185,water,647.0,220.64,17.9,0.0558659217877095,1.5,2.245014503263234,0.002502599
970.5,502.69,7273.8,0.00013748,58.018,64.929,111.78,38.223,59.528,723.48,0.19584,41.422,0.14825,supercritical,H2O,C7732185,water,647.0,220.64,17.9,0.0558659217877095,1.5,2.278326686004351,0.0024608919999999997
970.5,510.04,7395.4,0.00013522,57.947,64.843,111.59,38.298,59.839,723.61,0.19453,41.536,0.14943,supercritical,H2O,C7732185,water,647.0,220.64,17.9,0.0558659217877095,1.5,2.311638868745468,0.0024204379999999996
970.5,517.38,7517.3,0.00013303,57.875,64.758,111.4,38.372,60.149,723.77,0.19321,41.651,0.15061,supercritical,H2O,C7732185,water,647.0,220.64,17.9,0.0558659217877095,1.5,2.344905728788978,0.0023812369999999996
970.5,524.73,7639.5,0.0001309,57.804,64.673,111.22,38.446,60.459,723.95,0.19189,41.767,0.15181,supercritical,H2O,C7732185,water,647.0,220.64,17.9,0.0558659217877095,1.5,2.3782179115300943,0.0023431100000000002
970.5,532.08,7762.0,0.00012883,57.732,64.587,111.03,38.52,60.768,724.14,0.19057,41.884,0.15302,supercritical,H2O,C7732185,water,647.0,220.64,17.9,0.0558659217877095,1.5,2.4115300942712112,0.002306057
970.5,539.43,7884.9,0.00012682,57.661,64.502,110.84,38.592,61.076,724.36,0.18924,42.002,0.15423,supercritical,H2O,C7732185,water,647.0,220.64,17.9,0.0558659217877095,1.5,2.4448422770123277,0.002270078
970.5,546.78,8008.1,0.00012487,57.59,64.418,110.66,38.665,61.384,724.6,0.18791,42.121,0.15546,supercritical,H2O,C7732185,water,647.0,220.64,17.9,0.0558659217877095,1.5,2.4781544597534446,0.0022351729999999996
970.5,554.13,8131.6,0.00012298,57.518,64.333,110.48,38.737,61.69,724.86,0.18658,42.242,0.15669,supercritical,H2O,C7732185,water,647.0,220.64,17.9,0.0558659217877095,1.5,2.5114666424945615,0.002201342
970.5,561.47,8255.3,0.00012113,57.447,64.248,110.3,38.808,61.996,725.15,0.18525,42.363,0.15794,supercritical,H2O,C7732185,water,647.0,220.64,17.9,0.0558659217877095,1.5,2.5447335025380715,0.002168227
970.5,568.82,8379.4,0.00011934,57.376,64.164,110.12,38.879,62.301,725.45,0.18391,42.485,0.15919,supercritical,H2O,C7732185,water,647.0,220.64,17.9,0.0558659217877095,1.5,2.578045685279188,0.002136186
970.5,576.17,8503.7,0.0001176,57.304,64.08,109.95,38.949,62.605,725.78,0.18257,42.608,0.16045,supercritical,H2O,C7732185,water,647.0,220.64,17.9,0.0558659217877095,1.5,2.6113578680203045,0.00210504
970.5,583.52,8628.3,0.0001159,57.233,63.996,109.77,39.018,62.908,726.13,0.18124,42.732,0.16173,supercritical,H2O,C7732185,water,647.0,220.64,17.9,0.0558659217877095,1.5,2.6446700507614214,0.0020746099999999997
970.5,590.87,8753.2,0.00011424,57.162,63.912,109.6,39.088,63.209,726.5,0.1799,42.857,0.16301,supercritical,H2O,C7732185,water,647.0,220.64,17.9,0.0558659217877095,1.5,2.6779822335025383,0.002044896
970.5,598.22,8878.3,0.00011263,57.091,63.829,109.43,39.156,63.509,726.89,0.17856,42.983,0.1643,supercritical,H2O,C7732185,water,647.0,220.64,17.9,0.0558659217877095,1.5,2.711294416243655,0.002016077
970.5,605.56,9003.6,0.00011107,57.02,63.746,109.26,39.224,63.808,727.3,0.17722,43.11,0.1656,supercritical,H2O,C7732185,water,647.0,220.64,17.9,0.0558659217877095,1.5,2.7445612762871647,0.001988153
970.5,612.91,9129.2,0.00010954,56.949,63.663,109.09,39.291,64.105,727.74,0.17588,43.238,0.16691,supercritical,H2O,C7732185,water,647.0,220.64,17.9,0.0558659217877095,1.5,2.777873459028281,0.0019607659999999996
970.5,620.26,9254.9,0.00010805,56.878,63.58,108.92,39.358,64.4,728.19,0.17454,43.366,0.16823,supercritical,H2O,C7732185,water,647.0,220.64,17.9,0.0558659217877095,1.5,2.811185641769398,0.0019340949999999998
970.5,627.61,9380.9,0.0001066,56.807,63.498,108.75,39.424,64.694,728.67,0.1732,43.496,0.16956,supercritical,H2O,C7732185,water,647.0,220.64,17.9,0.0558659217877095,1.5,2.844497824510515,0.00190814
970.5,634.96,9507.1,0.00010519,56.737,63.415,108.59,39.49,64.986,729.17,0.17186,43.626,0.17089,supercritical,H2O,C7732185,water,647.0,220.64,17.9,0.0558659217877095,1.5,2.877810007251632,0.001882901
970.5,642.31,9633.4,0.00010381,56.666,63.333,108.43,39.555,65.276,729.7,0.17053,43.757,0.17224,supercritical,H2O,C7732185,water,647.0,220.64,17.9,0.0558659217877095,1.5,2.9111221899927484,0.0018581989999999998
970.5,649.65,9759.9,0.00010246,56.595,63.252,108.26,39.619,65.564,730.24,0.16919,43.889,0.17359,supercritical,H2O,C7732185,water,647.0,220.64,17.9,0.0558659217877095,1.5,2.9443890500362584,0.001834034
970.5,657.0,9886.5,0.00010115,56.525,63.17,108.1,39.683,65.85,730.81,0.16786,44.022,0.17495,supercritical,H2O,C7732185,water,647.0,220.64,17.9,0.0558659217877095,1.5,2.9777012327773753,0.001810585
970.5,664.35,10013.0,9.9867e-05,56.455,63.089,107.94,39.746,66.133,731.4,0.16653,44.155,0.17631,supercritical,H2O,C7732185,water,647.0,220.64,17.9,0.0558659217877095,1.5,3.0110134155184918,0.0017876193
970.5,671.7,10140.0,9.8617e-05,56.385,63.009,107.78,39.808,66.415,732.02,0.16519,44.29,0.17769,supercritical,H2O,C7732185,water,647.0,220.64,17.9,0.0558659217877095,1.5,3.0443255982596087,0.0017652442999999997
970.5,679.05,10267.0,9.7396e-05,56.314,62.928,107.63,39.87,66.694,732.65,0.16387,44.424,0.17907,supercritical,H2O,C7732185,water,647.0,220.64,17.9,0.0558659217877095,1.5,3.077637781000725,0.0017433884
970.5,686.4,10395.0,9.6205e-05,56.245,62.848,107.47,39.931,66.971,733.31,0.16254,44.56,0.18046,supercritical,H2O,C7732185,water,647.0,220.64,17.9,0.0558659217877095,1.5,3.110949963741842,0.0017220695
970.5,693.74,10522.0,9.5041e-05,56.175,62.768,107.32,39.992,67.246,733.99,0.16122,44.696,0.18186,supercritical,H2O,C7732185,water,647.0,220.64,17.9,0.0558659217877095,1.5,3.144216823785352,0.0017012339
970.5,701.09,10649.0,9.3904e-05,56.105,62.689,107.16,40.051,67.518,734.69,0.1599,44.833,0.18326,supercritical,H2O,C7732185,water,647.0,220.64,17.9,0.0558659217877095,1.5,3.177529006526469,0.0016808816