Temperature (K),Pressure (bar),Density (mol/m3),Volume (m3/mol),Internal Energy (kJ/mol),Enthalpy (kJ/mol),Entropy (J/mol*K),Cv (J/mol*K),Cp (J/mol*K),Sound Spd. (m/s),Joule-Thomson (K/bar),Viscosity (uPa*s),Therm. Cond. (W/m*K),Phase,substance,substance_id,substance_name,Tc,Pc,rhoc,Vmc,Tr,Pr,Vmr
582.3,657.0,43341.0,2.3073e-05,23.096,24.612,56.928,53.641,84.353,1217.7,0.00071302,99.52,0.61721,liquid,H2O,C7732185,water,647.0,220.64,17.9,0.0558659217877095,0.9000000000000001,2.9777012327773753,0.00041300669999999996
582.3,664.35,43384.0,2.305e-05,23.081,24.612,56.898,53.636,84.227,1220.9,0.00056503,99.69,0.61805,liquid,H2O,C7732185,water,647.0,220.64,17.9,0.0558659217877095,0.9000000000000001,3.0110134155184918,0.000412595
582.3,671.7,43427.0,2.3027e-05,23.065,24.612,56.868,53.631,84.102,1224.0,0.00041908,99.86,0.61888,liquid,H2O,C7732185,water,647.0,220.64,17.9,0.0558659217877095,0.9000000000000001,3.0443255982596087,0.0004121833
582.3,679.05,43470.0,2.3005e-05,23.049,24.611,56.839,53.626,83.979,1227.2,0.00027512,100.03,0.61971,liquid,H2O,C7732185,water,647.0,220.64,17.9,0.0558659217877095,0.9000000000000001,3.077637781000725,0.0004117895
582.3,686.4,43512.0,2.2982e-05,23.034,24.611,56.81,53.621,83.858,1230.3,0.00013312,100.2,0.62054,liquid,H2O,C7732185,water,647.0,220.64,17.9,0.0558659217877095,0.9000000000000001,3.110949963741842,0.0004113778
582.3,693.74,43554.0,2.296e-05,23.018,24.611,56.781,53.617,83.739,1233.4,-6.9681e-06,100.36,0.62137,liquid,H2O,C7732185,water,647.0,220.64,17.9,0.0558659217877095,0.9000000000000001,3.144216823785352,0.000410984
582.3,701.09,43596.0,2.2938e-05,23.003,24.611,56.752,53.612,83.621,1236.5,-0.00014519,100.53,0.62219,liquid,H2O,C7732185,water,647.0,220.64,17.9,0.0558659217877095,0.9000000000000001,3.177529006526469,0.00041059019999999997
582.3,708.44,43637.0,2.2916e-05,22.988,24.611,56.723,53.607,83.504,1239.6,-0.00028159,100.7,0.62301,liquid,H2O,C7732185,water,647.0,220.64,17.9,0.0558659217877095,0.9000000000000001,3.2108411892675854,0.00041019639999999996
582.3,715.79,43678.0,2.2895e-05,22.973,24.612,56.695,53.603,83.39,1242.7,-0.00041619,100.86,0.62383,liquid,H2O,C7732185,water,647.0,220.64,17.9,0.0558659217877095,0.9000000000000001,3.244153372008702,0.0004098205
582.3,723.14,43719.0,2.2873e-05,22.958,24.612,56.666,53.599,83.276,1245.7,-0.00054904,101.03,0.62464,liquid,H2O,C7732185,water,647.0,220.64,17.9,0.0558659217877095,0.9000000000000001,3.277465554749819,0.0004094267
582.3,730.49,43760.0,2.2852e-05,22.943,24.612,56.638,53.594,83.164,1248.7,-0.00068018,101.19,0.62545,liquid,H2O,C7732185,water,647.0,220.64,17.9,0.0558659217877095,0.9000000000000001,3.3107777374909357,0.0004090508
582.3,737.83,43800.0,2.2831e-05,22.928,24.613,56.61,53.59,83.054,1251.8,-0.00080964,101.35,0.62626,liquid,H2O,C7732185,water,647.0,220.64,17.9,0.0558659217877095,0.9000000000000001,3.3440445975344457,0.00040867489999999997
582.3,745.18,43841.0,2.281e-05,22.914,24.613,56.582,53.586,82.945,1254.7,-0.00093745,101.52,0.62707,liquid,H2O,C7732185,water,647.0,220.64,17.9,0.0558659217877095,0.9000000000000001,3.377356780275562,0.000408299
582.3,752.53,43881.0,2.2789e-05,22.899,24.614,56.554,53.582,82.837,1257.7,-0.0010637,101.68,0.62787,liquid,H2O,C7732185,water,647.0,220.64,17.9,0.0558659217877095,0.9000000000000001,3.4106689630166787,0.0004079231
582.3,759.88,43920.0,2.2768e-05,22.884,24.615,56.527,53.578,82.73,1260.7,-0.0011883,101.84,0.62867,liquid,H2O,C7732185,water,647.0,220.64,17.9,0.0558659217877095,0.9000000000000001,3.4439811457577956,0.0004075472
582.3,767.23,43960.0,2.2748e-05,22.87,24.615,56.499,53.574,82.625,1263.6,-0.0013113,102.0,0.62947,liquid,H2O,C7732185,water,647.0,220.64,17.9,0.0558659217877095,0.9000000000000001,3.4772933284989125,0.0004071892
582.3,774.58,43999.0,2.2728e-05,22.856,24.616,56.472,53.57,82.521,1266.5,-0.0014329,102.16,0.63027,liquid,H2O,C7732185,water,647.0,220.64,17.9,0.0558659217877095,0.9000000000000001,3.5106055112400294,0.0004068312
582.3,781.92,44038.0,2.2708e-05,22.842,24.617,56.445,53.566,82.419,1269.4,-0.001553,102.32,0.63106,liquid,H2O,C7732185,water,647.0,220.64,17.9,0.0558659217877095,0.9000000000000001,3.543872371283539,0.0004064732
582.3,789.27,44077.0,2.2688e-05,22.827,24.618,56.418,53.562,82.317,1272.3,-0.0016716,102.48,0.63186,liquid,H2O,C7732185,water,647.0,220.64,17.9,0.0558659217877095,0.9000000000000001,3.577184554024656,0.0004061152
582.3,796.62,44116.0,2.2668e-05,22.813,24.619,56.391,53.558,82.217,1275.2,-0.0017888,102.64,0.63265,liquid,H2O,C7732185,water,647.0,220.64,17.9,0.0558659217877095,0.9000000000000001,3.6104967367657728,0.0004057572
582.3,803.97,44154.0,2.2648e-05,22.799,24.62,56.365,53.554,82.118,1278.1,-0.0019045,102.8,0.63343,liquid,H2O,C7732185,water,647.0,220.64,17.9,0.0558659217877095,0.9000000000000001,3.6438089195068892,0.0004053992
582.3,811.32,44192.0,2.2628e-05,22.786,24.621,56.338,53.551,82.02,1280.9,-0.0020189,102.96,0.63422,liquid,H2O,C7732185,water,647.0,220.64,17.9,0.0558659217877095,0.9000000000000001,3.677121102248006,0.0004050412
582.3,818.66,44230.0,2.2609e-05,22.772,24.623,56.312,53.547,81.923,1283.8,-0.002132,103.11,0.635,liquid,H2O,C7732185,water,647.0,220.64,17.9,0.0558659217877095,0.9000000000000001,3.7103879622915157,0.00040470109999999997
582.3,826.01,44268.0,2.259e-05,22.758,24.624,56.285,53.544,81.828,1286.6,-0.0022437,103.27,0.63578,liquid,H2O,C7732185,water,647.0,220.64,17.9,0.0558659217877095,0.9000000000000001,3.7437001450326326,0.00040436099999999995
582.3,833.36,44306.0,2.2571e-05,22.744,24.625,56.259,53.54,81.733,1289.4,-0.0023542,103.43,0.63656,liquid,H2O,C7732185,water,647.0,220.64,17.9,0.0558659217877095,0.9000000000000001,3.7770123277737495,0.0004040209
582.3,840.71,44343.0,2.2551e-05,22.731,24.627,56.233,53.537,81.64,1292.2,-0.0024633,103.58,0.63733,liquid,H2O,C7732185,water,647.0,220.64,17.9,0.0558659217877095,0.9000000000000001,3.8103245105148664,0.0004036629
582.3,848.06,44380.0,2.2533e-05,22.717,24.628,56.207,53.533,81.547,1294.9,-0.0025712,103.74,0.63811,liquid,H2O,C7732185,water,647.0,220.64,17.9,0.0558659217877095,0.9000000000000001,3.8436366932559825,0.00040334069999999994
582.3,855.41,44417.0,2.2514e-05,22.704,24.63,56.182,53.53,81.456,1297.7,-0.0026779,103.89,0.63888,liquid,H2O,C7732185,water,647.0,220.64,17.9,0.0558659217877095,0.9000000000000001,3.8769488759970994,0.0004030006
582.3,862.75,44454.0,2.2495e-05,22.691,24.632,56.156,53.527,81.365,1300.5,-0.0027834,104.04,0.63965,liquid,H2O,C7732185,water,647.0,220.64,17.9,0.0558659217877095,0.9000000000000001,3.9102157360406093,0.0004026605
582.3,870.1,44490.0,2.2477e-05,22.677,24.633,56.131,53.524,81.276,1303.2,-0.0028876,104.2,0.64042,liquid,H2O,C7732185,water,647.0,220.64,17.9,0.0558659217877095,0.9000000000000001,3.9435279187817263,0.00040233829999999996
582.3,877.45,44527.0,2.2458e-05,22.664,24.635,56.105,53.52,81.188,1305.9,-0.0029907,104.35,0.64118,liquid,H2O,C7732185,water,647.0,220.64,17.9,0.0558659217877095,0.9000000000000001,3.976840101522843,0.0004019982
582.3,884.8,44563.0,2.244e-05,22.651,24.637,56.08,53.517,81.1,1308.6,-0.0030927,104.5,0.64195,liquid,H2O,C7732185,water,647.0,220.64,17.9,0.0558659217877095,0.9000000000000001,4.01015228426396,0.00040167599999999995
582.3,892.15,44599.0,2.2422e-05,22.638,24.639,56.055,53.514,81.013,1311.3,-0.0031936,104.66,0.64271,liquid,H2O,C7732185,water,647.0,220.64,17.9,0.0558659217877095,0.9000000000000001,4.043464467005077,0.00040135379999999997
582.3,899.5,44635.0,2.2404e-05,22.625,24.641,56.03,53.511,80.928,1314.0,-0.0032933,104.81,0.64347,liquid,H2O,C7732185,water,647.0,220.64,17.9,0.0558659217877095,0.9000000000000001,4.0767766497461935,0.0004010316
582.3,906.84,44670.0,2.2386e-05,22.612,24.643,56.005,53.508,80.843,1316.7,-0.003392,104.96,0.64422,liquid,H2O,C7732185,water,647.0,220.64,17.9,0.0558659217877095,0.9000000000000001,4.110043509789703,0.00040070939999999993
582.3,914.19,44706.0,2.2368e-05,22.6,24.645,55.98,53.505,80.759,1319.3,-0.0034896,105.11,0.64498,liquid,H2O,C7732185,water,647.0,220.64,17.9,0.0558659217877095,0.9000000000000001,4.14335569253082,0.0004003872
582.3,921.54,44741.0,2.2351e-05,22.587,24.647,55.956,53.502,80.676,1322.0,-0.0035861,105.26,0.64573,liquid,H2O,C7732185,water,647.0,220.64,17.9,0.0558659217877095,0.9000000000000001,4.176667875271936,0.0004000829
582.3,928.89,44776.0,2.2333e-05,22.574,24.649,55.931,53.499,80.594,1324.6,-0.0036816,105.41,0.64648,liquid,H2O,C7732185,water,647.0,220.64,17.9,0.0558659217877095,0.9000000000000001,4.209980058013053,0.0003997607
582.3,936.24,44811.0,2.2316e-05,22.562,24.651,55.907,53.496,80.513,1327.2,-0.0037761,105.56,0.64723,liquid,H2O,C7732185,water,647.0,220.64,17.9,0.0558659217877095,0.9000000000000001,4.24329224075417,0.0003994564
582.3,943.59,44846.0,2.2299e-05,22.549,24.653,55.883,53.494,80.432,1329.8,-0.0038696,105.71,0.64798,liquid,H2O,C7732185,water,647.0,220.64,17.9,0.0558659217877095,0.9000000000000001,4.276604423495287,0.0003991521
582.3,950.93,44881.0,2.2281e-05,22.537,24.656,55.859,53.491,80.352,1332.4,-0.0039621,105.85,0.64873,liquid,H2O,C7732185,water,647.0,220.64,17.9,0.0558659217877095,0.9000000000000001,4.309871283538796,0.00039882989999999994
582.3,958.28,44915.0,2.2264e-05,22.524,24.658,55.835,53.488,80.273,1335.0,-0.0040537,106.0,0.64947,liquid,H2O,C7732185,water,647.0,220.64,17.9,0.0558659217877095,0.9000000000000001,4.343183466279913,0.00039852559999999993
582.3,965.63,44949.0,2.2247e-05,22.512,24.66,55.811,53.485,80.195,1337.6,-0.0041443,106.15,0.65021,liquid,H2O,C7732185,water,647.0,220.64,17.9,0.0558659217877095,0.9000000000000001,4.37649564902103,0.0003982213
582.3,972.98,44983.0,2.223e-05,22.5,24.663,55.787,53.483,80.118,1340.1,-0.004234,106.3,0.65095,liquid,H2O,C7732185,water,647.0,220.64,17.9,0.0558659217877095,0.9000000000000001,4.409807831762147,0.00039791699999999996
582.3,980.33,45017.0,2.2214e-05,22.488,24.665,55.763,53.48,80.041,1342.7,-0.0043228,106.44,0.65169,liquid,H2O,C7732185,water,647.0,220.64,17.9,0.0558659217877095,0.9000000000000001,4.443120014503264,0.0003976306
582.3,987.68,45051.0,2.2197e-05,22.476,24.668,55.739,53.477,79.966,1345.2,-0.0044106,106.59,0.65243,liquid,H2O,C7732185,water,647.0,220.64,17.9,0.0558659217877095,0.9000000000000001,4.47643219724438,0.0003973263
582.3,995.02,45085.0,2.218e-05,22.464,24.671,55.716,53.475,79.89,1347.7,-0.0044976,106.74,0.65316,liquid,H2O,C7732185,water,647.0,220.64,17.9,0.0558659217877095,0.9000000000000001,4.50969905728789,0.000397022
582.3,1002.4,45118.0,2.2164e-05,22.452,24.673,55.692,53.472,79.816,1350.3,-0.0045837,106.88,0.6539,liquid,H2O,C7732185,water,647.0,220.64,17.9,0.0558659217877095,0.9000000000000001,4.543147208121828,0.0003967356
582.3,1009.7,45152.0,2.2148e-05,22.44,24.676,55.669,53.47,79.742,1352.8,-0.0046689,107.03,0.65463,liquid,H2O,C7732185,water,647.0,220.64,17.9,0.0558659217877095,0.9000000000000001,4.576232777374909,0.00039644919999999996
582.3,1017.1,45185.0,2.2131e-05,22.428,24.679,55.646,53.467,79.669,1355.3,-0.0047533,107.17,0.65536,liquid,H2O,C7732185,water,647.0,220.64,17.9,0.0558659217877095,0.9000000000000001,4.609771573604061,0.00039614489999999995
582.3,1024.4,45218.0,2.2115e-05,22.416,24.682,55.623,53.465,79.597,1357.8,-0.0048369,107.32,0.65609,liquid,H2O,C7732185,water,647.0,220.64,17.9,0.0558659217877095,0.9000000000000001,4.642857142857143,0.00039585849999999997
582.3,1031.8,45251.0,2.2099e-05,22.404,24.684,55.6,53.463,79.525,1360.2,-0.0049196,107.46,0.65681,liquid,H2O,C7732185,water,647.0,220.64,17.9,0.0558659217877095,0.9000000000000001,4.676395939086294,0.0003955721
582.3,1039.1,45283.0,2.2083e-05,22.393,24.687,55.577,53.46,79.455,1362.7,-0.0050015,107.6,0.65754,liquid,H2O,C7732185,water,647.0,220.64,17.9,0.0558659217877095,0.9000000000000001,4.709481508339376,0.00039528569999999996
582.3,1046.5,45316.0,2.2067e-05,22.381,24.69,55.554,53.458,79.384,1365.1,-0.0050827,107.75,0.65826,liquid,H2O,C7732185,water,647.0,220.64,17.9,0.0558659217877095,0.9000000000000001,4.743020304568528,0.0003949993
582.3,1053.8,45348.0,2.2052e-05,22.369,24.693,55.531,53.456,79.315,1367.6,-0.005163,107.89,0.65898,liquid,H2O,C7732185,water,647.0,220.64,17.9,0.0558659217877095,0.9000000000000001,4.77610587382161,0.0003947308
582.3,1061.2,45381.0,2.2036e-05,22.358,24.696,55.509,53.453,79.246,1370.0,-0.0052426,108.03,0.6597,liquid,H2O,C7732185,water,647.0,220.64,17.9,0.0558659217877095,0.9000000000000001,4.809644670050762,0.0003944444
582.3,1068.5,45413.0,2.202e-05,22.346,24.699,55.486,53.451,79.177,1372.4,-0.0053214,108.17,0.66042,liquid,H2O,C7732185,water,647.0,220.64,17.9,0.0558659217877095,0.9000000000000001,4.842730239303844,0.000394158
582.3,1075.9,45445.0,2.2005e-05,22.335,24.702,55.464,53.449,79.109,1374.9,-0.0053995,108.31,0.66114,liquid,H2O,C7732185,water,647.0,220.64,17.9,0.0558659217877095,0.9000000000000001,4.876269035532996,0.0003938895
582.3,1083.2,45477.0,2.1989e-05,22.324,24.706,55.442,53.447,79.042,1377.3,-0.0054768,108.46,0.66185,liquid,H2O,C7732185,water,647.0,220.64,17.9,0.0558659217877095,0.9000000000000001,4.909354604786078,0.00039360309999999994
582.3,1090.6,45508.0,2.1974e-05,22.312,24.709,55.419,53.444,78.976,1379.7,-0.0055534,108.6,0.66257,liquid,H2O,C7732185,water,647.0,220.64,17.9,0.0558659217877095,0.9000000000000001,4.942893401015228,0.0003933346
582.3,1097.9,45540.0,2.1959e-05,22.301,24.712,55.397,53.442,78.91,1382.0,-0.0056293,108.74,0.66328,liquid,H2O,C7732185,water,647.0,220.64,17.9,0.0558659217877095,0.9000000000000001,4.9759789702683115,0.0003930661
582.3,1105.2,45571.0,2.1944e-05,22.29,24.715,55.375,53.44,78.844,1384.4,-0.0057045,108.88,0.66399,liquid,H2O,C7732185,water,647.0,220.64,17.9,0.0558659217877095,0.9000000000000001,5.009064539521392,0.00039279759999999995
582.3,1112.6,45603.0,2.1929e-05,22.279,24.719,55.353,53.438,78.779,1386.8,-0.005779,109.02,0.6647,liquid,H2O,C7732185,water,647.0,220.64,17.9,0.0558659217877095,0.9000000000000001,5.0426033357505435,0.00039252909999999995
582.3,1119.9,45634.0,2.1914e-05,22.268,24.722,55.331,53.436,78.715,1389.1,-0.0058528,109.16,0.66541,liquid,H2O,C7732185,water,647.0,220.64,17.9,0.0558659217877095,0.9000000000000001,5.075688905003626,0.0003922606
582.3,1127.3,45665.0,2.1899e-05,22.257,24.725,55.309,53.434,78.651,1391.5,-0.0059259,109.3,0.66611,liquid,H2O,C7732185,water,647.0,220.64,17.9,0.0558659217877095,0.9000000000000001,5.109227701232777,0.0003919921
582.3,1134.6,45696.0,2.1884e-05,22.246,24.729,55.288,53.432,78.588,1393.8,-0.0059983,109.43,0.66682,liquid,H2O,C7732185,water,647.0,220.64,17.9,0.0558659217877095,0.9000000000000001,5.142313270485859,0.00039172359999999995
582.3,1142.0,45727.0,2.1869e-05,22.235,24.732,55.266,53.43,78.525,1396.2,-0.0060701,109.57,0.66752,liquid,H2O,C7732185,water,647.0,220.64,17.9,0.0558659217877095,0.9000000000000001,5.175852066715011,0.0003914551
582.3,1149.3,45757.0,2.1854e-05,22.224,24.736,55.245,53.428,78.463,1398.5,-0.0061413,109.71,0.66822,liquid,H2O,C7732185,water,647.0,220.64,17.9,0.0558659217877095,0.9000000000000001,5.208937635968093,0.0003911866
582.3,1156.7,45788.0,2.184e-05,22.213,24.739,55.223,53.426,78.402,1400.8,-0.0062118,109.85,0.66892,liquid,H2O,C7732185,water,647.0,220.64,17.9,0.0558659217877095,0.9000000000000001,5.242476432197245,0.000390936
582.3,1164.0,45818.0,2.1825e-05,22.202,24.743,55.202,53.424,78.341,1403.1,-0.0062817,109.99,0.66962,liquid,H2O,C7732185,water,647.0,220.64,17.9,0.0558659217877095,0.9000000000000001,5.275562001450327,0.00039066749999999993
582.3,1171.4,45849.0,2.1811e-05,22.192,24.747,55.18,53.422,78.28,1405.4,-0.006351,110.12,0.67032,liquid,H2O,C7732185,water,647.0,220.64,17.9,0.0558659217877095,0.9000000000000001,5.309100797679479,0.00039041689999999997
582.3,1178.7,45879.0,2.1796e-05,22.181,24.75,55.159,53.42,78.22,1407.7,-0.0064196,110.26,0.67101,liquid,H2O,C7732185,water,647.0,220.64,17.9,0.0558659217877095,0.9000000000000001,5.342186366932561,0.00039014839999999997
582.3,1186.1,45909.0,2.1782e-05,22.17,24.754,55.138,53.418,78.16,1410.0,-0.0064877,110.4,0.67171,liquid,H2O,C7732185,water,647.0,220.64,17.9,0.0558659217877095,0.9000000000000001,5.375725163161711,0.00038989779999999995
582.3,1193.4,45939.0,2.1768e-05,22.16,24.758,55.117,53.417,78.101,1412.2,-0.0065551,110.53,0.6724,liquid,H2O,C7732185,water,647.0,220.64,17.9,0.0558659217877095,0.9000000000000001,5.4088107324147945,0.0003896472
582.3,1200.8,45969.0,2.1754e-05,22.149,24.762,55.096,53.415,78.043,1414.5,-0.006622,110.67,0.67309,liquid,H2O,C7732185,water,647.0,220.64,17.9,0.0558659217877095,0.9000000000000001,5.442349528643945,0.00038939659999999996
582.3,1208.1,45999.0,2.174e-05,22.139,24.765,55.075,53.413,77.985,1416.7,-0.0066883,110.81,0.67378,liquid,H2O,C7732185,water,647.0,220.64,17.9,0.0558659217877095,0.9000000000000001,5.4754350978970265,0.00038914599999999994
582.3,1215.5,46028.0,2.1726e-05,22.129,24.769,55.054,53.411,77.927,1419.0,-0.006754,110.94,0.67447,liquid,H2O,C7732185,water,647.0,220.64,17.9,0.0558659217877095,0.9000000000000001,5.5089738941261785,0.00038889539999999997
582.3,1222.8,46058.0,2.1712e-05,22.118,24.773,55.034,53.409,77.87,1421.2,-0.0068191,111.08,0.67516,liquid,H2O,C7732185,water,647.0,220.64,17.9,0.0558659217877095,0.9000000000000001,5.54205946337926,0.0003886448
582.3,1230.2,46087.0,2.1698e-05,22.108,24.777,55.013,53.408,77.813,1423.5,-0.0068837,111.21,0.67584,liquid,H2O,C7732185,water,647.0,220.64,17.9,0.0558659217877095,0.9000000000000001,5.575598259608412,0.0003883942
582.3,1237.5,46116.0,2.1684e-05,22.098,24.781,54.992,53.406,77.757,1425.7,-0.0069477,111.34,0.67653,liquid,H2O,C7732185,water,647.0,220.64,17.9,0.0558659217877095,0.9000000000000001,5.608683828861494,0.0003881436
582.3,1244.9,46146.0,2.1671e-05,22.087,24.785,54.972,53.404,77.701,1427.9,-0.0070112,111.48,0.67721,liquid,H2O,C7732185,water,647.0,220.64,17.9,0.0558659217877095,0.9000000000000001,5.642222625090646,0.00038791089999999997
582.3,1252.2,46175.0,2.1657e-05,22.077,24.789,54.952,53.402,77.645,1430.1,-0.0070742,111.61,0.6779,liquid,H2O,C7732185,water,647.0,220.64,17.9,0.0558659217877095,0.9000000000000001,5.675308194343728,0.00038766029999999995
582.3,1259.6,46204.0,2.1643e-05,22.067,24.793,54.931,53.401,77.59,1432.3,-0.0071366,111.75,0.67858,liquid,H2O,C7732185,water,647.0,220.64,17.9,0.0558659217877095,0.9000000000000001,5.708846990572879,0.0003874097
582.3,1266.9,46232.0,2.163e-05,22.057,24.797,54.911,53.399,77.536,1434.5,-0.0071986,111.88,0.67926,liquid,H2O,C7732185,water,647.0,220.64,17.9,0.0558659217877095,0.9000000000000001,5.741932559825962,0.000387177
582.3,1274.3,46261.0,2.1616e-05,22.047,24.801,54.891,53.398,77.482,1436.7,-0.00726,112.01,0.67993,liquid,H2O,C7732185,water,647.0,220.64,17.9,0.0558659217877095,0.9000000000000001,5.775471356055113,0.0003869264
582.3,1281.6,46290.0,2.1603e-05,22.037,24.805,54.87,53.396,77.428,1438.8,-0.0073208,112.15,0.68061,liquid,H2O,C7732185,water,647.0,220.64,17.9,0.0558659217877095,0.9000000000000001,5.808556925308194,0.0003866937
582.3,1289.0,46318.0,2.159e-05,22.027,24.81,54.85,53.394,77.375,1441.0,-0.0073812,112.28,0.68129,liquid,H2O,C7732185,water,647.0,220.64,17.9,0.0558659217877095,0.9000000000000001,5.842095721537346,0.000386461
582.3,1296.3,46347.0,2.1577e-05,22.017,24.814,54.83,53.393,77.322,1443.2,-0.0074411,112.41,0.68196,liquid,H2O,C7732185,water,647.0,220.64,17.9,0.0558659217877095,0.9000000000000001,5.875181290790428,0.00038622829999999996
582.3,1303.7,46375.0,2.1563e-05,22.007,24.818,54.81,53.391,77.269,1445.3,-0.0075005,112.54,0.68264,liquid,H2O,C7732185,water,647.0,220.64,17.9,0.0558659217877095,0.9000000000000001,5.90872008701958,0.0003859777
582.3,1311.0,46403.0,2.155e-05,21.997,24.822,54.791,53.39,77.217,1447.5,-0.0075594,112.67,0.68331,liquid,H2O,C7732185,water,647.0,220.64,17.9,0.0558659217877095,0.9000000000000001,5.9418056562726616,0.00038574499999999995
582.3,1318.4,46431.0,2.1537e-05,21.987,24.827,54.771,53.388,77.165,1449.6,-0.0076179,112.81,0.68398,liquid,H2O,C7732185,water,647.0,220.64,17.9,0.0558659217877095,0.9000000000000001,5.975344452501814,0.0003855123