Temperature (K),Pressure (bar),Density (mol/m3),Volume (m3/mol),Internal Energy (kJ/mol),Enthalpy (kJ/mol),Entropy (J/mol*K),Cv (J/mol*K),Cp (J/mol*K),Sound Spd. (m/s),Joule-Thomson (K/bar),Viscosity (uPa*s),Therm. Cond. (W/m*K),Phase,substance,substance_id,substance_name,Tc,Pc,rhoc,Vmc,Tr,Pr,Vmr
1358.7,752.53,6753.8,0.00014806,73.234,84.376,125.54,39.568,52.514,908.44,0.071348,,,supercritical,H2O,C7732185,water,647.0,220.64,17.9,0.0558659217877095,2.1,3.4106689630166787,0.0026502739999999998
1358.7,759.88,6819.4,0.00014664,73.206,84.349,125.44,39.588,52.576,909.0,0.071056,,,supercritical,H2O,C7732185,water,647.0,220.64,17.9,0.0558659217877095,2.1,3.4439811457577956,0.0026248559999999996
1358.7,767.23,6884.9,0.00014524,73.178,84.321,125.34,39.607,52.638,909.57,0.070764,,,supercritical,H2O,C7732185,water,647.0,220.64,17.9,0.0558659217877095,2.1,3.4772933284989125,0.002599796
1358.7,774.58,6950.4,0.00014388,73.15,84.294,125.24,39.627,52.7,910.14,0.070472,,,supercritical,H2O,C7732185,water,647.0,220.64,17.9,0.0558659217877095,2.1,3.5106055112400294,0.002575452
1358.7,781.92,7015.9,0.00014253,73.122,84.267,125.14,39.646,52.761,910.72,0.07018,,,supercritical,H2O,C7732185,water,647.0,220.64,17.9,0.0558659217877095,2.1,3.543872371283539,0.0025512869999999997
1358.7,789.27,7081.3,0.00014122,73.094,84.24,125.04,39.666,52.823,911.3,0.069888,,,supercritical,H2O,C7732185,water,647.0,220.64,17.9,0.0558659217877095,2.1,3.577184554024656,0.002527838
1358.7,796.62,7146.7,0.00013992,73.066,84.213,124.95,39.685,52.884,911.89,0.069596,,,supercritical,H2O,C7732185,water,647.0,220.64,17.9,0.0558659217877095,2.1,3.6104967367657728,0.002504568
1358.7,803.97,7212.1,0.00013866,73.038,84.186,124.85,39.704,52.945,912.48,0.069305,,,supercritical,H2O,C7732185,water,647.0,220.64,17.9,0.0558659217877095,2.1,3.6438089195068892,0.002482014
1358.7,811.32,7277.4,0.00013741,73.01,84.159,124.76,39.724,53.006,913.08,0.069013,,,supercritical,H2O,C7732185,water,647.0,220.64,17.9,0.0558659217877095,2.1,3.677121102248006,0.002459639
1358.7,818.66,7342.6,0.00013619,72.982,84.132,124.67,39.743,53.066,913.68,0.068722,,,supercritical,H2O,C7732185,water,647.0,220.64,17.9,0.0558659217877095,2.1,3.7103879622915157,0.002437801
1358.7,826.01,7407.9,0.00013499,72.954,84.105,124.57,39.762,53.127,914.28,0.06843,,,supercritical,H2O,C7732185,water,647.0,220.64,17.9,0.0558659217877095,2.1,3.7437001450326326,0.002416321
1358.7,833.36,7473.0,0.00013381,72.927,84.078,124.48,39.781,53.187,914.89,0.068139,,,supercritical,H2O,C7732185,water,647.0,220.64,17.9,0.0558659217877095,2.1,3.7770123277737495,0.0023951989999999998
1358.7,840.71,7538.2,0.00013266,72.899,84.052,124.39,39.8,53.247,915.51,0.067848,,,supercritical,H2O,C7732185,water,647.0,220.64,17.9,0.0558659217877095,2.1,3.8103245105148664,0.0023746139999999997
1358.7,848.06,7603.2,0.00013152,72.871,84.025,124.3,39.819,53.307,916.13,0.067557,,,supercritical,H2O,C7732185,water,647.0,220.64,17.9,0.0558659217877095,2.1,3.8436366932559825,0.0023542079999999996
1358.7,855.41,7668.3,0.00013041,72.844,83.999,124.21,39.838,53.367,916.75,0.067267,,,supercritical,H2O,C7732185,water,647.0,220.64,17.9,0.0558659217877095,2.1,3.8769488759970994,0.002334339
1358.7,862.75,7733.3,0.00012931,72.816,83.972,124.12,39.857,53.426,917.38,0.066976,,,supercritical,H2O,C7732185,water,647.0,220.64,17.9,0.0558659217877095,2.1,3.9102157360406093,0.002314649
1358.7,870.1,7798.2,0.00012823,72.788,83.946,124.03,39.875,53.485,918.02,0.066686,,,supercritical,H2O,C7732185,water,647.0,220.64,17.9,0.0558659217877095,2.1,3.9435279187817263,0.002295317
1358.7,877.45,7863.1,0.00012718,72.761,83.92,123.94,39.894,53.544,918.65,0.066396,,,supercritical,H2O,C7732185,water,647.0,220.64,17.9,0.0558659217877095,2.1,3.976840101522843,0.002276522
1358.7,884.8,7928.0,0.00012614,72.733,83.894,123.85,39.913,53.603,919.3,0.066107,,,supercritical,H2O,C7732185,water,647.0,220.64,17.9,0.0558659217877095,2.1,4.01015228426396,0.002257906
1358.7,892.15,7992.8,0.00012511,72.706,83.868,123.77,39.931,53.661,919.94,0.065818,,,supercritical,H2O,C7732185,water,647.0,220.64,17.9,0.0558659217877095,2.1,4.043464467005077,0.002239469
1358.7,899.5,8057.5,0.00012411,72.679,83.842,123.68,39.95,53.72,920.6,0.065529,,,supercritical,H2O,C7732185,water,647.0,220.64,17.9,0.0558659217877095,2.1,4.0767766497461935,0.002221569
1358.7,906.84,8122.2,0.00012312,72.651,83.816,123.59,39.968,53.778,921.25,0.06524,,,supercritical,H2O,C7732185,water,647.0,220.64,17.9,0.0558659217877095,2.1,4.110043509789703,0.002203848
1358.7,914.19,8186.8,0.00012215,72.624,83.79,123.51,39.987,53.836,921.91,0.064952,,,supercritical,H2O,C7732185,water,647.0,220.64,17.9,0.0558659217877095,2.1,4.14335569253082,0.0021864849999999997
1358.7,921.54,8251.4,0.00012119,72.597,83.765,123.42,40.005,53.893,922.58,0.064664,,,supercritical,H2O,C7732185,water,647.0,220.64,17.9,0.0558659217877095,2.1,4.176667875271936,0.0021693009999999998
1358.7,928.89,8316.0,0.00012025,72.569,83.739,123.34,40.024,53.951,923.25,0.064377,,,supercritical,H2O,C7732185,water,647.0,220.64,17.9,0.0558659217877095,2.1,4.209980058013053,0.0021524749999999996
1358.7,936.24,8380.4,0.00011933,72.542,83.714,123.26,40.042,54.008,923.92,0.06409,,,supercritical,H2O,C7732185,water,647.0,220.64,17.9,0.0558659217877095,2.1,4.24329224075417,0.0021360069999999997
1358.7,943.59,8444.9,0.00011842,72.515,83.688,123.17,40.06,54.065,924.6,0.063803,,,supercritical,H2O,C7732185,water,647.0,220.64,17.9,0.0558659217877095,2.1,4.276604423495287,0.0021197179999999996
1358.7,950.93,8509.2,0.00011752,72.488,83.663,123.09,40.078,54.122,925.28,0.063517,,,supercritical,H2O,C7732185,water,647.0,220.64,17.9,0.0558659217877095,2.1,4.309871283538796,0.002103608
1358.7,958.28,8573.5,0.00011664,72.461,83.638,123.01,40.096,54.178,925.97,0.063231,,,supercritical,H2O,C7732185,water,647.0,220.64,17.9,0.0558659217877095,2.1,4.343183466279913,0.002087856
1358.7,965.63,8637.8,0.00011577,72.434,83.613,122.93,40.114,54.234,926.66,0.062946,,,supercritical,H2O,C7732185,water,647.0,220.64,17.9,0.0558659217877095,2.1,4.37649564902103,0.002072283
1358.7,972.98,8702.0,0.00011492,72.407,83.588,122.85,40.132,54.291,927.36,0.062661,,,supercritical,H2O,C7732185,water,647.0,220.64,17.9,0.0558659217877095,2.1,4.409807831762147,0.002057068
1358.7,980.33,8766.1,0.00011408,72.38,83.563,122.77,40.15,54.346,928.06,0.062377,,,supercritical,H2O,C7732185,water,647.0,220.64,17.9,0.0558659217877095,2.1,4.443120014503264,0.002042032
1358.7,987.68,8830.2,0.00011325,72.353,83.538,122.69,40.168,54.402,928.76,0.062093,,,supercritical,H2O,C7732185,water,647.0,220.64,17.9,0.0558659217877095,2.1,4.47643219724438,0.002027175
1358.7,995.02,8894.2,0.00011243,72.326,83.513,122.61,40.186,54.457,929.47,0.06181,,,supercritical,H2O,C7732185,water,647.0,220.64,17.9,0.0558659217877095,2.1,4.50969905728789,0.002012497
1358.7,1002.4,8958.1,0.00011163,72.299,83.488,122.53,40.203,54.513,930.18,0.061527,,,supercritical,H2O,C7732185,water,647.0,220.64,17.9,0.0558659217877095,2.1,4.543147208121828,0.001998177
1358.7,1009.7,9022.0,0.00011084,72.272,83.464,122.45,40.221,54.567,930.9,0.061245,,,supercritical,H2O,C7732185,water,647.0,220.64,17.9,0.0558659217877095,2.1,4.576232777374909,0.001984036
1358.7,1017.1,9085.9,0.00011006,72.245,83.439,122.37,40.239,54.622,931.62,0.060963,,,supercritical,H2O,C7732185,water,647.0,220.64,17.9,0.0558659217877095,2.1,4.609771573604061,0.001970074
1358.7,1024.4,9149.6,0.00010929,72.219,83.415,122.29,40.256,54.677,932.34,0.060682,,,supercritical,H2O,C7732185,water,647.0,220.64,17.9,0.0558659217877095,2.1,4.642857142857143,0.001956291
1358.7,1031.8,9213.3,0.00010854,72.192,83.391,122.22,40.274,54.731,933.07,0.060401,,,supercritical,H2O,C7732185,water,647.0,220.64,17.9,0.0558659217877095,2.1,4.676395939086294,0.001942866
1358.7,1039.1,9277.0,0.00010779,72.165,83.366,122.14,40.291,54.785,933.81,0.060121,,,supercritical,H2O,C7732185,water,647.0,220.64,17.9,0.0558659217877095,2.1,4.709481508339376,0.0019294409999999998
1358.7,1046.5,9340.5,0.00010706,72.139,83.342,122.07,40.309,54.839,934.54,0.059841,,,supercritical,H2O,C7732185,water,647.0,220.64,17.9,0.0558659217877095,2.1,4.743020304568528,0.0019163739999999998
1358.7,1053.8,9404.0,0.00010634,72.112,83.318,121.99,40.326,54.892,935.29,0.059562,,,supercritical,H2O,C7732185,water,647.0,220.64,17.9,0.0558659217877095,2.1,4.77610587382161,0.0019034859999999998
1358.7,1061.2,9467.5,0.00010562,72.086,83.294,121.92,40.343,54.945,936.03,0.059284,,,supercritical,H2O,C7732185,water,647.0,220.64,17.9,0.0558659217877095,2.1,4.809644670050762,0.0018905979999999998
1358.7,1068.5,9530.8,0.00010492,72.059,83.27,121.84,40.361,54.999,936.78,0.059006,,,supercritical,H2O,C7732185,water,647.0,220.64,17.9,0.0558659217877095,2.1,4.842730239303844,0.0018780679999999999
1358.7,1075.9,9594.2,0.00010423,72.033,83.246,121.77,40.378,55.051,937.54,0.058729,,,supercritical,H2O,C7732185,water,647.0,220.64,17.9,0.0558659217877095,2.1,4.876269035532996,0.0018657169999999998
1358.7,1083.2,9657.4,0.00010355,72.006,83.223,121.69,40.395,55.104,938.29,0.058452,,,supercritical,H2O,C7732185,water,647.0,220.64,17.9,0.0558659217877095,2.1,4.909354604786078,0.0018535449999999998
1358.7,1090.6,9720.6,0.00010287,71.98,83.199,121.62,40.412,55.156,939.05,0.058176,,,supercritical,H2O,C7732185,water,647.0,220.64,17.9,0.0558659217877095,2.1,4.942893401015228,0.0018413729999999999
1358.7,1097.9,9783.7,0.00010221,71.954,83.176,121.55,40.429,55.208,939.82,0.057901,,,supercritical,H2O,C7732185,water,647.0,220.64,17.9,0.0558659217877095,2.1,4.9759789702683115,0.001829559
1358.7,1105.2,9846.7,0.00010156,71.927,83.152,121.47,40.446,55.26,940.59,0.057626,,,supercritical,H2O,C7732185,water,647.0,220.64,17.9,0.0558659217877095,2.1,5.009064539521392,0.0018179239999999998
1358.7,1112.6,9909.6,0.00010091,71.901,83.129,121.4,40.463,55.312,941.36,0.057352,,,supercritical,H2O,C7732185,water,647.0,220.64,17.9,0.0558659217877095,2.1,5.0426033357505435,0.0018062889999999998
1358.7,1119.9,9972.5,0.00010028,71.875,83.105,121.33,40.48,55.363,942.14,0.057079,,,supercritical,H2O,C7732185,water,647.0,220.64,17.9,0.0558659217877095,2.1,5.075688905003626,0.001795012
1358.7,1127.3,10035.0,9.9648e-05,71.849,83.082,121.26,40.497,55.414,942.92,0.056806,,,supercritical,H2O,C7732185,water,647.0,220.64,17.9,0.0558659217877095,2.1,5.109227701232777,0.0017836992
1358.7,1134.6,10098.0,9.9029e-05,71.823,83.059,121.19,40.513,55.465,943.7,0.056534,,,supercritical,H2O,C7732185,water,647.0,220.64,17.9,0.0558659217877095,2.1,5.142313270485859,0.0017726191
1358.7,1142.0,10161.0,9.8418e-05,71.797,83.036,121.12,40.53,55.516,944.49,0.056263,,,supercritical,H2O,C7732185,water,647.0,220.64,17.9,0.0558659217877095,2.1,5.175852066715011,0.0017616822
1358.7,1149.3,10223.0,9.7815e-05,71.771,83.013,121.05,40.547,55.566,945.29,0.055992,,,supercritical,H2O,C7732185,water,647.0,220.64,17.9,0.0558659217877095,2.1,5.208937635968093,0.0017508884999999999
1358.7,1156.7,10286.0,9.7221e-05,71.745,82.99,120.98,40.563,55.617,946.08,0.055722,,,supercritical,H2O,C7732185,water,647.0,220.64,17.9,0.0558659217877095,2.1,5.242476432197245,0.0017402558999999999
1358.7,1164.0,10348.0,9.6634e-05,71.719,82.968,120.91,40.58,55.667,946.88,0.055452,,,supercritical,H2O,C7732185,water,647.0,220.64,17.9,0.0558659217877095,2.1,5.275562001450327,0.0017297486
1358.7,1171.4,10411.0,9.6055e-05,71.693,82.945,120.84,40.596,55.716,947.69,0.055184,,,supercritical,H2O,C7732185,water,647.0,220.64,17.9,0.0558659217877095,2.1,5.309100797679479,0.0017193845
1358.7,1178.7,10473.0,9.5484e-05,71.668,82.923,120.77,40.613,55.766,948.49,0.054916,,,supercritical,H2O,C7732185,water,647.0,220.64,17.9,0.0558659217877095,2.1,5.342186366932561,0.0017091635999999999
1358.7,1186.1,10535.0,9.492e-05,71.642,82.9,120.71,40.629,55.815,949.3,0.054648,,,supercritical,H2O,C7732185,water,647.0,220.64,17.9,0.0558659217877095,2.1,5.375725163161711,0.001699068
1358.7,1193.4,10597.0,9.4363e-05,71.616,82.878,120.64,40.645,55.864,950.12,0.054382,,,supercritical,H2O,C7732185,water,647.0,220.64,17.9,0.0558659217877095,2.1,5.4088107324147945,0.0016890976999999999
1358.7,1200.8,10659.0,9.3814e-05,71.59,82.855,120.57,40.661,55.913,950.94,0.054116,,,supercritical,H2O,C7732185,water,647.0,220.64,17.9,0.0558659217877095,2.1,5.442349528643945,0.0016792706
1358.7,1208.1,10721.0,9.3272e-05,71.565,82.833,120.5,40.678,55.961,951.76,0.053851,,,supercritical,H2O,C7732185,water,647.0,220.64,17.9,0.0558659217877095,2.1,5.4754350978970265,0.0016695687999999998
1358.7,1215.5,10783.0,9.2736e-05,71.539,82.811,120.44,40.694,56.009,952.58,0.053586,,,supercritical,H2O,C7732185,water,647.0,220.64,17.9,0.0558659217877095,2.1,5.5089738941261785,0.0016599744
1358.7,1222.8,10845.0,9.2207e-05,71.514,82.789,120.37,40.71,56.057,953.41,0.053322,,,supercritical,H2O,C7732185,water,647.0,220.64,17.9,0.0558659217877095,2.1,5.54205946337926,0.0016505053
1358.7,1230.2,10907.0,9.1685e-05,71.488,82.767,120.3,40.726,56.105,954.25,0.053059,,,supercritical,H2O,C7732185,water,647.0,220.64,17.9,0.0558659217877095,2.1,5.575598259608412,0.0016411614999999999
1358.7,1237.5,10969.0,9.117e-05,71.463,82.745,120.24,40.742,56.153,955.08,0.052797,,,supercritical,H2O,C7732185,water,647.0,220.64,17.9,0.0558659217877095,2.1,5.608683828861494,0.0016319429999999998
1358.7,1244.9,11030.0,9.0661e-05,71.438,82.724,120.17,40.758,56.2,955.92,0.052535,,,supercritical,H2O,C7732185,water,647.0,220.64,17.9,0.0558659217877095,2.1,5.642222625090646,0.0016228319
1358.7,1252.2,11092.0,9.0158e-05,71.412,82.702,120.11,40.774,56.247,956.77,0.052274,,,supercritical,H2O,C7732185,water,647.0,220.64,17.9,0.0558659217877095,2.1,5.675308194343728,0.0016138282
1358.7,1259.6,11153.0,8.9661e-05,71.387,82.68,120.04,40.79,56.294,957.61,0.052014,,,supercritical,H2O,C7732185,water,647.0,220.64,17.9,0.0558659217877095,2.1,5.708846990572879,0.0016049318999999999
1358.7,1266.9,11214.0,8.9171e-05,71.362,82.659,119.98,40.805,56.34,958.46,0.051755,,,supercritical,H2O,C7732185,water,647.0,220.64,17.9,0.0558659217877095,2.1,5.741932559825962,0.0015961609
1358.7,1274.3,11276.0,8.8686e-05,71.337,82.638,119.92,40.821,56.386,959.32,0.051496,,,supercritical,H2O,C7732185,water,647.0,220.64,17.9,0.0558659217877095,2.1,5.775471356055113,0.0015874793999999998
1358.7,1281.6,11337.0,8.8208e-05,71.311,82.616,119.85,40.837,56.432,960.17,0.051238,,,supercritical,H2O,C7732185,water,647.0,220.64,17.9,0.0558659217877095,2.1,5.808556925308194,0.0015789232
1358.7,1289.0,11398.0,8.7735e-05,71.286,82.595,119.79,40.852,56.478,961.04,0.050981,,,supercritical,H2O,C7732185,water,647.0,220.64,17.9,0.0558659217877095,2.1,5.842095721537346,0.0015704565
1358.7,1296.3,11459.0,8.7268e-05,71.261,82.574,119.73,40.868,56.524,961.9,0.050724,,,supercritical,H2O,C7732185,water,647.0,220.64,17.9,0.0558659217877095,2.1,5.875181290790428,0.0015620972
1358.7,1303.7,11520.0,8.6806e-05,71.236,82.553,119.66,40.883,56.569,962.77,0.050468,,,supercritical,H2O,C7732185,water,647.0,220.64,17.9,0.0558659217877095,2.1,5.90872008701958,0.0015538273999999997
1358.7,1311.0,11581.0,8.635e-05,71.211,82.532,119.6,40.899,56.614,963.64,0.050213,,,supercritical,H2O,C7732185,water,647.0,220.64,17.9,0.0558659217877095,2.1,5.9418056562726616,0.0015456649999999999
1358.7,1318.4,11642.0,8.5899e-05,71.187,82.511,119.54,40.914,56.659,964.51,0.049959,,,supercritical,H2O,C7732185,water,647.0,220.64,17.9,0.0558659217877095,2.1,5.975344452501814,0.0015375921
1358.7,1325.7,11702.0,8.5454e-05,71.162,82.49,119.48,40.93,56.703,965.39,0.049705,,,supercritical,H2O,C7732185,water,647.0,220.64,17.9,0.0558659217877095,2.1,6.008430021754895,0.0015296265999999998
1358.7,1333.0,11763.0,8.5014e-05,71.137,82.47,119.42,40.945,56.748,966.27,0.049453,,,supercritical,H2O,C7732185,water,647.0,220.64,17.9,0.0558659217877095,2.1,6.041515591007977,0.0015217505999999999
1358.7,1340.4,11823.0,8.4579e-05,71.112,82.449,119.36,40.96,56.792,967.16,0.0492,,,supercritical,H2O,C7732185,water,647.0,220.64,17.9,0.0558659217877095,2.1,6.075054387237129,0.0015139641
1358.7,1347.7,11884.0,8.4149e-05,71.088,82.429,119.3,40.975,56.836,968.04,0.048949,,,supercritical,H2O,C7732185,water,647.0,220.64,17.9,0.0558659217877095,2.1,6.108139956490211,0.0015062670999999998
1358.7,1355.1,11944.0,8.3724e-05,71.063,82.408,119.24,40.991,56.879,968.93,0.048699,,,supercritical,H2O,C7732185,water,647.0,220.64,17.9,0.0558659217877095,2.1,6.141678752719362,0.0014986595999999998
1358.7,1362.4,12004.0,8.3304e-05,71.038,82.388,119.18,41.006,56.923,969.83,0.048449,,,supercritical,H2O,C7732185,water,647.0,220.64,17.9,0.0558659217877095,2.1,6.174764321972445,0.0014911415999999999
1358.7,1369.8,12064.0,8.2888e-05,71.014,82.368,119.12,41.021,56.966,970.73,0.0482,,,supercritical,H2O,C7732185,water,647.0,220.64,17.9,0.0558659217877095,2.1,6.208303118201596,0.0014836951999999998
1358.7,1377.1,12125.0,8.2478e-05,70.989,82.348,119.06,41.036,57.008,971.63,0.047951,,,supercritical,H2O,C7732185,water,647.0,220.64,17.9,0.0558659217877095,2.1,6.241388687454677,0.0014763562
1358.7,1384.5,12184.0,8.2072e-05,70.965,82.328,119.0,41.051,57.051,972.53,0.047704,,,supercritical,H2O,C7732185,water,647.0,220.64,17.9,0.0558659217877095,2.1,6.274927483683829,0.0014690887999999997
1358.7,1391.8,12244.0,8.167e-05,70.94,82.308,118.94,41.066,57.093,973.44,0.047457,,,supercritical,H2O,C7732185,water,647.0,220.64,17.9,0.0558659217877095,2.1,6.308013052936911,0.001461893
1358.7,1399.2,12304.0,8.1273e-05,70.916,82.288,118.88,41.08,57.135,974.35,0.047211,,,supercritical,H2O,C7732185,water,647.0,220.64,17.9,0.0558659217877095,2.1,6.341551849166063,0.0014547867
1358.7,1406.5,12364.0,8.0881e-05,70.892,82.268,118.82,41.095,57.177,975.26,0.046965,,,supercritical,H2O,C7732185,water,647.0,220.64,17.9,0.0558659217877095,2.1,6.3746374184191446,0.0014477698999999999
1358.7,1413.9,12424.0,8.0493e-05,70.868,82.248,118.76,41.11,57.219,976.18,0.046721,,,supercritical,H2O,C7732185,water,647.0,220.64,17.9,0.0558659217877095,2.1,6.408176214648297,0.0014408247
1358.7,1421.2,12483.0,8.0109e-05,70.843,82.229,118.7,41.125,57.26,977.1,0.046477,,,supercritical,H2O,C7732185,water,647.0,220.64,17.9,0.0558659217877095,2.1,6.441261783901378,0.0014339511
1358.7,1428.6,12542.0,7.9729e-05,70.819,82.209,118.65,41.139,57.301,978.02,0.046234,,,supercritical,H2O,C7732185,water,647.0,220.64,17.9,0.0558659217877095,2.1,6.4748005801305295,0.0014271490999999998
1358.7,1435.9,12602.0,7.9354e-05,70.795,82.19,118.59,41.154,57.342,978.95,0.045992,,,supercritical,H2O,C7732185,water,647.0,220.64,17.9,0.0558659217877095,2.1,6.507886149383612,0.0014204366
1358.7,1443.3,12661.0,7.8982e-05,70.771,82.17,118.53,41.168,57.383,979.87,0.04575,,,supercritical,H2O,C7732185,water,647.0,220.64,17.9,0.0558659217877095,2.1,6.541424945612763,0.0014137777999999998
1358.7,1450.6,12720.0,7.8615e-05,70.747,82.151,118.48,41.183,57.423,980.81,0.045509,,,supercritical,H2O,C7732185,water,647.0,220.64,17.9,0.0558659217877095,2.1,6.574510514865845,0.0014072085
1358.7,1458.0,12779.0,7.8251e-05,70.723,82.132,118.42,41.197,57.463,981.74,0.045269,,,supercritical,H2O,C7732185,water,647.0,220.64,17.9,0.0558659217877095,2.1,6.608049311094997,0.0014006928999999997
1358.7,1465.3,12838.0,7.7892e-05,70.699,82.113,118.36,41.212,57.503,982.68,0.04503,,,supercritical,H2O,C7732185,water,647.0,220.64,17.9,0.0558659217877095,2.1,6.641134880348078,0.0013942668
1358.7,1472.7,12897.0,7.7536e-05,70.675,82.094,118.31,41.226,57.543,983.62,0.044791,,,supercritical,H2O,C7732185,water,647.0,220.64,17.9,0.0558659217877095,2.1,6.67467367657723,0.0013878944
1358.7,1480.0,12956.0,7.7184e-05,70.652,82.075,118.25,41.241,57.582,984.57,0.044554,,,supercritical,H2O,C7732185,water,647.0,220.64,17.9,0.0558659217877095,2.1,6.707759245830312,0.0013815936
1358.7,1487.4,13015.0,7.6836e-05,70.628,82.056,118.2,41.255,57.622,985.51,0.044316,,,supercritical,H2O,C7732185,water,647.0,220.64,17.9,0.0558659217877095,2.1,6.741298042059464,0.0013753643999999997