Temperature (K),Pressure (bar),Density (mol/m3),Volume (m3/mol),Internal Energy (kJ/mol),Enthalpy (kJ/mol),Entropy (J/mol*K),Cv (J/mol*K),Cp (J/mol*K),Sound Spd. (m/s),Joule-Thomson (K/bar),Viscosity (uPa*s),Therm. Cond. (W/m*K),Phase,substance,substance_id,substance_name,Tc,Pc,rhoc,Vmc,Tr,Pr,Vmr
577.94,453.33,9169.3,0.00010906,25.788,30.732,92.116,41.01,60.927,455.64,0.065885,40.246,0.060733,supercritical,CO2,C124389,carbon-dioxide,304.18,73.8,10.6,0.09433962264150944,1.9,6.142682926829268,0.001156036
577.94,455.79,9209.2,0.00010859,25.773,30.722,92.053,41.018,60.959,456.56,0.065271,40.355,0.060874,supercritical,CO2,C124389,carbon-dioxide,304.18,73.8,10.6,0.09433962264150944,1.9,6.176016260162602,0.0011510539999999999
577.94,458.25,9249.0,0.00010812,25.758,30.713,91.99,41.025,60.991,457.47,0.064661,40.464,0.061015,supercritical,CO2,C124389,carbon-dioxide,304.18,73.8,10.6,0.09433962264150944,1.9,6.2093495934959355,0.001146072
577.94,460.71,9288.6,0.00010766,25.743,30.703,91.927,41.033,61.022,458.38,0.064055,40.573,0.061156,supercritical,CO2,C124389,carbon-dioxide,304.18,73.8,10.6,0.09433962264150944,1.9,6.242682926829268,0.001141196
577.94,463.17,9328.1,0.0001072,25.728,30.694,91.865,41.04,61.053,459.3,0.063454,40.682,0.061297,supercritical,CO2,C124389,carbon-dioxide,304.18,73.8,10.6,0.09433962264150944,1.9,6.276016260162602,0.00113632
577.94,465.63,9367.4,0.00010675,25.713,30.684,91.803,41.047,61.084,460.22,0.062857,40.791,0.061437,supercritical,CO2,C124389,carbon-dioxide,304.18,73.8,10.6,0.09433962264150944,1.9,6.309349593495935,0.00113155
577.94,468.08,9406.6,0.00010631,25.698,30.675,91.742,41.055,61.114,461.14,0.062263,40.901,0.061577,supercritical,CO2,C124389,carbon-dioxide,304.18,73.8,10.6,0.09433962264150944,1.9,6.342547425474255,0.001126886
577.94,470.54,9445.6,0.00010587,25.684,30.665,91.68,41.062,61.143,462.06,0.061674,41.011,0.061717,supercritical,CO2,C124389,carbon-dioxide,304.18,73.8,10.6,0.09433962264150944,1.9,6.375880758807589,0.001122222
577.94,473.0,9484.5,0.00010544,25.669,30.656,91.619,41.069,61.173,462.98,0.06109,41.121,0.061857,supercritical,CO2,C124389,carbon-dioxide,304.18,73.8,10.6,0.09433962264150944,1.9,6.409214092140922,0.0011176639999999998
577.94,475.46,9523.2,0.00010501,25.654,30.647,91.559,41.077,61.201,463.9,0.060509,41.231,0.061997,supercritical,CO2,C124389,carbon-dioxide,304.18,73.8,10.6,0.09433962264150944,1.9,6.442547425474254,0.001113106
577.94,477.92,9561.8,0.00010458,25.64,30.638,91.499,41.084,61.23,464.83,0.059932,41.341,0.062137,supercritical,CO2,C124389,carbon-dioxide,304.18,73.8,10.6,0.09433962264150944,1.9,6.475880758807588,0.001108548
577.94,480.38,9600.3,0.00010416,25.625,30.629,91.439,41.091,61.258,465.75,0.059359,41.451,0.062277,supercritical,CO2,C124389,carbon-dioxide,304.18,73.8,10.6,0.09433962264150944,1.9,6.509214092140922,0.001104096
577.94,482.83,9638.6,0.00010375,25.611,30.62,91.379,41.098,61.286,466.68,0.05879,41.562,0.062416,supercritical,CO2,C124389,carbon-dioxide,304.18,73.8,10.6,0.09433962264150944,1.9,6.542411924119241,0.00109975
577.94,485.29,9676.8,0.00010334,25.596,30.611,91.32,41.105,61.313,467.61,0.058226,41.673,0.062555,supercritical,CO2,C124389,carbon-dioxide,304.18,73.8,10.6,0.09433962264150944,1.9,6.575745257452575,0.001095404
577.94,487.75,9714.8,0.00010294,25.582,30.602,91.261,41.112,61.34,468.54,0.057665,41.784,0.062694,supercritical,CO2,C124389,carbon-dioxide,304.18,73.8,10.6,0.09433962264150944,1.9,6.609078590785908,0.001091164
577.94,490.21,9752.7,0.00010254,25.567,30.594,91.202,41.119,61.367,469.47,0.057108,41.895,0.062833,supercritical,CO2,C124389,carbon-dioxide,304.18,73.8,10.6,0.09433962264150944,1.9,6.642411924119241,0.001086924
577.94,492.67,9790.5,0.00010214,25.553,30.585,91.144,41.126,61.393,470.41,0.056555,42.006,0.062972,supercritical,CO2,C124389,carbon-dioxide,304.18,73.8,10.6,0.09433962264150944,1.9,6.675745257452575,0.0010826839999999998
577.94,495.13,9828.1,0.00010175,25.539,30.577,91.086,41.133,61.419,471.34,0.056006,42.117,0.06311,supercritical,CO2,C124389,carbon-dioxide,304.18,73.8,10.6,0.09433962264150944,1.9,6.709078590785908,0.00107855
577.94,497.58,9865.5,0.00010136,25.525,30.568,91.028,41.14,61.444,472.28,0.05546,42.228,0.063249,supercritical,CO2,C124389,carbon-dioxide,304.18,73.8,10.6,0.09433962264150944,1.9,6.742276422764228,0.001074416
577.94,500.04,9902.9,0.00010098,25.511,30.56,90.97,41.147,61.469,473.22,0.054919,42.34,0.063387,supercritical,CO2,C124389,carbon-dioxide,304.18,73.8,10.6,0.09433962264150944,1.9,6.775609756097562,0.0010703879999999998
577.94,502.5,9940.1,0.0001006,25.496,30.552,90.913,41.154,61.494,474.15,0.054381,42.452,0.063525,supercritical,CO2,C124389,carbon-dioxide,304.18,73.8,10.6,0.09433962264150944,1.9,6.808943089430895,0.00106636
577.94,504.96,9977.1,0.00010023,25.482,30.544,90.856,41.16,61.518,475.09,0.053847,42.563,0.063662,supercritical,CO2,C124389,carbon-dioxide,304.18,73.8,10.6,0.09433962264150944,1.9,6.842276422764227,0.001062438
577.94,507.42,10014.0,9.986e-05,25.468,30.535,90.8,41.167,61.542,476.03,0.053317,42.675,0.0638,supercritical,CO2,C124389,carbon-dioxide,304.18,73.8,10.6,0.09433962264150944,1.9,6.875609756097561,0.0010585159999999998
577.94,509.88,10051.0,9.9494e-05,25.454,30.527,90.743,41.174,61.566,476.97,0.052791,42.787,0.063937,supercritical,CO2,C124389,carbon-dioxide,304.18,73.8,10.6,0.09433962264150944,1.9,6.9089430894308945,0.0010546364
577.94,512.33,10087.0,9.9133e-05,25.441,30.519,90.687,41.181,61.589,477.92,0.052268,42.899,0.064074,supercritical,CO2,C124389,carbon-dioxide,304.18,73.8,10.6,0.09433962264150944,1.9,6.942140921409215,0.0010508098
577.94,514.79,10124.0,9.8775e-05,25.427,30.512,90.632,41.187,61.612,478.86,0.051748,43.012,0.064211,supercritical,CO2,C124389,carbon-dioxide,304.18,73.8,10.6,0.09433962264150944,1.9,6.975474254742547,0.0010470149999999999
577.94,517.25,10160.0,9.8422e-05,25.413,30.504,90.576,41.194,61.635,479.8,0.051233,43.124,0.064348,supercritical,CO2,C124389,carbon-dioxide,304.18,73.8,10.6,0.09433962264150944,1.9,7.008807588075881,0.0010432732
577.94,519.71,10197.0,9.8072e-05,25.399,30.496,90.521,41.2,61.657,480.75,0.050721,43.237,0.064485,supercritical,CO2,C124389,carbon-dioxide,304.18,73.8,10.6,0.09433962264150944,1.9,7.0421409214092145,0.0010395632
577.94,522.17,10233.0,9.7726e-05,25.385,30.488,90.466,41.207,61.679,481.7,0.050212,43.349,0.064621,supercritical,CO2,C124389,carbon-dioxide,304.18,73.8,10.6,0.09433962264150944,1.9,7.075474254742547,0.0010358956
577.94,524.63,10269.0,9.7384e-05,25.372,30.481,90.412,41.214,61.701,482.64,0.049708,43.462,0.064757,supercritical,CO2,C124389,carbon-dioxide,304.18,73.8,10.6,0.09433962264150944,1.9,7.108807588075881,0.0010322704
577.94,527.08,10304.0,9.7045e-05,25.358,30.473,90.357,41.22,61.722,483.59,0.049206,43.575,0.064893,supercritical,CO2,C124389,carbon-dioxide,304.18,73.8,10.6,0.09433962264150944,1.9,7.142005420054201,0.001028677
577.94,529.54,10340.0,9.671e-05,25.345,30.466,90.303,41.226,61.743,484.54,0.048708,43.687,0.065029,supercritical,CO2,C124389,carbon-dioxide,304.18,73.8,10.6,0.09433962264150944,1.9,7.175338753387534,0.001025126
577.94,532.0,10376.0,9.6379e-05,25.331,30.459,90.249,41.233,61.763,485.49,0.048214,43.8,0.065164,supercritical,CO2,C124389,carbon-dioxide,304.18,73.8,10.6,0.09433962264150944,1.9,7.208672086720868,0.0010216174
577.94,534.46,10411.0,9.6051e-05,25.318,30.451,90.196,41.239,61.784,486.44,0.047723,43.913,0.0653,supercritical,CO2,C124389,carbon-dioxide,304.18,73.8,10.6,0.09433962264150944,1.9,7.242005420054201,0.0010181406
577.94,536.92,10446.0,9.5726e-05,25.304,30.444,90.143,41.246,61.804,487.39,0.047235,44.027,0.065435,supercritical,CO2,C124389,carbon-dioxide,304.18,73.8,10.6,0.09433962264150944,1.9,7.275338753387533,0.0010146956
577.94,539.38,10482.0,9.5405e-05,25.291,30.437,90.09,41.252,61.823,488.34,0.046751,44.14,0.06557,supercritical,CO2,C124389,carbon-dioxide,304.18,73.8,10.6,0.09433962264150944,1.9,7.308672086720867,0.001011293
577.94,541.83,10517.0,9.5087e-05,25.278,30.43,90.037,41.258,61.843,489.3,0.04627,44.253,0.065704,supercritical,CO2,C124389,carbon-dioxide,304.18,73.8,10.6,0.09433962264150944,1.9,7.341869918699188,0.0010079222
577.94,544.29,10552.0,9.4772e-05,25.264,30.423,89.984,41.265,61.862,490.25,0.045792,44.367,0.065839,supercritical,CO2,C124389,carbon-dioxide,304.18,73.8,10.6,0.09433962264150944,1.9,7.37520325203252,0.0010045832
577.94,546.75,10586.0,9.4461e-05,25.251,30.416,89.932,41.271,61.881,491.2,0.045318,44.48,0.065973,supercritical,CO2,C124389,carbon-dioxide,304.18,73.8,10.6,0.09433962264150944,1.9,7.408536585365854,0.0010012865999999999
577.94,549.21,10621.0,9.4153e-05,25.238,30.409,89.88,41.277,61.899,492.16,0.044847,44.594,0.066107,supercritical,CO2,C124389,carbon-dioxide,304.18,73.8,10.6,0.09433962264150944,1.9,7.4418699186991875,0.0009980218
577.94,551.67,10656.0,9.3848e-05,25.225,30.402,89.829,41.283,61.917,493.11,0.044379,44.707,0.066241,supercritical,CO2,C124389,carbon-dioxide,304.18,73.8,10.6,0.09433962264150944,1.9,7.47520325203252,0.0009947888
577.94,554.13,10690.0,9.3546e-05,25.212,30.396,89.777,41.289,61.935,494.07,0.043915,44.821,0.066374,supercritical,CO2,C124389,carbon-dioxide,304.18,73.8,10.6,0.09433962264150944,1.9,7.508536585365854,0.0009915876
577.94,556.58,10724.0,9.3247e-05,25.199,30.389,89.726,41.296,61.953,495.03,0.043454,44.935,0.066508,supercritical,CO2,C124389,carbon-dioxide,304.18,73.8,10.6,0.09433962264150944,1.9,7.541734417344174,0.0009884181999999999
577.94,559.04,10758.0,9.2951e-05,25.186,30.382,89.675,41.302,61.97,495.98,0.042995,45.048,0.066641,supercritical,CO2,C124389,carbon-dioxide,304.18,73.8,10.6,0.09433962264150944,1.9,7.575067750677507,0.0009852805999999998
577.94,561.5,10792.0,9.2658e-05,25.173,30.376,89.624,41.308,61.987,496.94,0.04254,45.162,0.066774,supercritical,CO2,C124389,carbon-dioxide,304.18,73.8,10.6,0.09433962264150944,1.9,7.608401084010841,0.0009821748
577.94,563.96,10826.0,9.2368e-05,25.16,30.369,89.574,41.314,62.004,497.9,0.042089,45.276,0.066906,supercritical,CO2,C124389,carbon-dioxide,304.18,73.8,10.6,0.09433962264150944,1.9,7.641734417344174,0.0009791008
577.94,566.42,10860.0,9.2081e-05,25.147,30.363,89.523,41.32,62.02,498.86,0.04164,45.39,0.067039,supercritical,CO2,C124389,carbon-dioxide,304.18,73.8,10.6,0.09433962264150944,1.9,7.675067750677506,0.0009760585999999999
577.94,568.88,10894.0,9.1797e-05,25.135,30.357,89.473,41.326,62.036,499.82,0.041194,45.504,0.067171,supercritical,CO2,C124389,carbon-dioxide,304.18,73.8,10.6,0.09433962264150944,1.9,7.70840108401084,0.0009730482
577.94,571.33,10927.0,9.1516e-05,25.122,30.35,89.423,41.332,62.052,500.78,0.040752,45.618,0.067303,supercritical,CO2,C124389,carbon-dioxide,304.18,73.8,10.6,0.09433962264150944,1.9,7.741598915989161,0.0009700695999999999
577.94,573.79,10960.0,9.1237e-05,25.109,30.344,89.374,41.338,62.068,501.74,0.040312,45.733,0.067435,supercritical,CO2,C124389,carbon-dioxide,304.18,73.8,10.6,0.09433962264150944,1.9,7.774932249322493,0.0009671121999999999
577.94,576.25,10994.0,9.0961e-05,25.096,30.338,89.325,41.344,62.083,502.7,0.039875,45.847,0.067566,supercritical,CO2,C124389,carbon-dioxide,304.18,73.8,10.6,0.09433962264150944,1.9,7.808265582655827,0.0009641865999999999
577.94,578.71,11027.0,9.0688e-05,25.084,30.332,89.275,41.35,62.098,503.66,0.039442,45.961,0.067697,supercritical,CO2,C124389,carbon-dioxide,304.18,73.8,10.6,0.09433962264150944,1.9,7.84159891598916,0.0009612927999999999
577.94,581.17,11060.0,9.0417e-05,25.071,30.326,89.227,41.356,62.113,504.62,0.039011,46.075,0.067828,supercritical,CO2,C124389,carbon-dioxide,304.18,73.8,10.6,0.09433962264150944,1.9,7.874932249322493,0.0009584201999999999
577.94,583.63,11093.0,9.0149e-05,25.059,30.32,89.178,41.362,62.128,505.58,0.038583,46.19,0.067959,supercritical,CO2,C124389,carbon-dioxide,304.18,73.8,10.6,0.09433962264150944,1.9,7.908265582655827,0.0009555793999999998
577.94,586.08,11126.0,8.9883e-05,25.046,30.314,89.129,41.367,62.142,506.54,0.038158,46.304,0.06809,supercritical,CO2,C124389,carbon-dioxide,304.18,73.8,10.6,0.09433962264150944,1.9,7.941463414634147,0.0009527598
577.94,588.54,11158.0,8.9621e-05,25.034,30.308,89.081,41.373,62.156,507.51,0.037737,46.419,0.06822,supercritical,CO2,C124389,carbon-dioxide,304.18,73.8,10.6,0.09433962264150944,1.9,7.9747967479674795,0.0009499825999999999
577.94,591.0,11191.0,8.936e-05,25.022,30.303,89.033,41.379,62.17,508.47,0.037318,46.533,0.06835,supercritical,CO2,C124389,carbon-dioxide,304.18,73.8,10.6,0.09433962264150944,1.9,8.008130081300813,0.000947216
577.94,593.46,11223.0,8.9102e-05,25.009,30.297,88.985,41.385,62.184,509.43,0.036901,46.648,0.06848,supercritical,CO2,C124389,carbon-dioxide,304.18,73.8,10.6,0.09433962264150944,1.9,8.041463414634148,0.0009444811999999999
577.94,595.92,11255.0,8.8847e-05,24.997,30.291,88.938,41.391,62.197,510.39,0.036488,46.762,0.06861,supercritical,CO2,C124389,carbon-dioxide,304.18,73.8,10.6,0.09433962264150944,1.9,8.07479674796748,0.0009417782
577.94,598.38,11288.0,8.8593e-05,24.985,30.286,88.891,41.396,62.21,511.36,0.036077,46.877,0.068739,supercritical,CO2,C124389,carbon-dioxide,304.18,73.8,10.6,0.09433962264150944,1.9,8.108130081300814,0.0009390857999999999
577.94,600.83,11320.0,8.8343e-05,24.972,30.28,88.843,41.402,62.223,512.32,0.03567,46.991,0.068868,supercritical,CO2,C124389,carbon-dioxide,304.18,73.8,10.6,0.09433962264150944,1.9,8.141327913279135,0.0009364358
577.94,603.29,11351.0,8.8094e-05,24.96,30.275,88.797,41.408,62.235,513.28,0.035265,47.106,0.068997,supercritical,CO2,C124389,carbon-dioxide,304.18,73.8,10.6,0.09433962264150944,1.9,8.174661246612466,0.0009337963999999999
577.94,605.75,11383.0,8.7848e-05,24.948,30.27,88.75,41.413,62.248,514.25,0.034862,47.22,0.069126,supercritical,CO2,C124389,carbon-dioxide,304.18,73.8,10.6,0.09433962264150944,1.9,8.2079945799458,0.0009311888
577.94,608.21,11415.0,8.7604e-05,24.936,30.264,88.703,41.419,62.26,515.21,0.034463,47.335,0.069254,supercritical,CO2,C124389,carbon-dioxide,304.18,73.8,10.6,0.09433962264150944,1.9,8.241327913279134,0.0009286023999999999
577.94,610.67,11447.0,8.7362e-05,24.924,30.259,88.657,41.425,62.272,516.18,0.034066,47.45,0.069382,supercritical,CO2,C124389,carbon-dioxide,304.18,73.8,10.6,0.09433962264150944,1.9,8.274661246612466,0.0009260371999999998
577.94,613.13,11478.0,8.7123e-05,24.912,30.254,88.611,41.43,62.284,517.14,0.033672,47.565,0.06951,supercritical,CO2,C124389,carbon-dioxide,304.18,73.8,10.6,0.09433962264150944,1.9,8.3079945799458,0.0009235037999999999
577.94,615.58,11509.0,8.6886e-05,24.9,30.249,88.565,41.436,62.295,518.1,0.033281,47.679,0.069638,supercritical,CO2,C124389,carbon-dioxide,304.18,73.8,10.6,0.09433962264150944,1.9,8.341192411924121,0.0009209915999999999
577.94,618.04,11541.0,8.6651e-05,24.888,30.244,88.519,41.442,62.306,519.07,0.032892,47.794,0.069766,supercritical,CO2,C124389,carbon-dioxide,304.18,73.8,10.6,0.09433962264150944,1.9,8.374525745257452,0.0009185005999999999
577.94,620.5,11572.0,8.6418e-05,24.876,30.239,88.474,41.447,62.317,520.03,0.032506,47.909,0.069893,supercritical,CO2,C124389,carbon-dioxide,304.18,73.8,10.6,0.09433962264150944,1.9,8.407859078590786,0.0009160307999999999
577.94,622.96,11603.0,8.6187e-05,24.865,30.234,88.429,41.453,62.328,521.0,0.032122,48.024,0.07002,supercritical,CO2,C124389,carbon-dioxide,304.18,73.8,10.6,0.09433962264150944,1.9,8.44119241192412,0.0009135822
577.94,625.42,11634.0,8.5958e-05,24.853,30.229,88.384,41.458,62.339,521.96,0.031741,48.138,0.070147,supercritical,CO2,C124389,carbon-dioxide,304.18,73.8,10.6,0.09433962264150944,1.9,8.474525745257452,0.0009111548
577.94,627.88,11664.0,8.5731e-05,24.841,30.224,88.339,41.464,62.349,522.93,0.031363,48.253,0.070273,supercritical,CO2,C124389,carbon-dioxide,304.18,73.8,10.6,0.09433962264150944,1.9,8.507859078590787,0.0009087485999999999
577.94,630.33,11695.0,8.5506e-05,24.829,30.219,88.294,41.469,62.359,523.89,0.030987,48.368,0.0704,supercritical,CO2,C124389,carbon-dioxide,304.18,73.8,10.6,0.09433962264150944,1.9,8.541056910569107,0.0009063636
577.94,632.79,11726.0,8.5284e-05,24.818,30.214,88.25,41.475,62.369,524.86,0.030613,48.483,0.070526,supercritical,CO2,C124389,carbon-dioxide,304.18,73.8,10.6,0.09433962264150944,1.9,8.574390243902439,0.0009040104
577.94,635.25,11756.0,8.5063e-05,24.806,30.21,88.205,41.48,62.379,525.82,0.030243,48.598,0.070652,supercritical,CO2,C124389,carbon-dioxide,304.18,73.8,10.6,0.09433962264150944,1.9,8.607723577235772,0.0009016677999999999
577.94,637.71,11786.0,8.4844e-05,24.795,30.205,88.161,41.486,62.389,526.78,0.029874,48.712,0.070777,supercritical,CO2,C124389,carbon-dioxide,304.18,73.8,10.6,0.09433962264150944,1.9,8.641056910569107,0.0008993464
577.94,640.17,11817.0,8.4627e-05,24.783,30.201,88.117,41.491,62.398,527.75,0.029508,48.827,0.070903,supercritical,CO2,C124389,carbon-dioxide,304.18,73.8,10.6,0.09433962264150944,1.9,8.674390243902439,0.0008970461999999999
577.94,642.63,11847.0,8.4412e-05,24.772,30.196,88.073,41.496,62.407,528.71,0.029145,48.942,0.071028,supercritical,CO2,C124389,carbon-dioxide,304.18,73.8,10.6,0.09433962264150944,1.9,8.707723577235774,0.0008947671999999999
577.94,645.08,11877.0,8.4199e-05,24.76,30.192,88.03,41.502,62.416,529.68,0.028784,49.057,0.071153,supercritical,CO2,C124389,carbon-dioxide,304.18,73.8,10.6,0.09433962264150944,1.9,8.740921409214094,0.0008925093999999999
577.94,647.54,11907.0,8.3987e-05,24.749,30.187,87.987,41.507,62.425,530.64,0.028426,49.172,0.071277,supercritical,CO2,C124389,carbon-dioxide,304.18,73.8,10.6,0.09433962264150944,1.9,8.774254742547425,0.0008902621999999999
577.94,650.0,11936.0,8.3778e-05,24.737,30.183,87.943,41.513,62.434,531.6,0.028069,49.286,0.071402,supercritical,CO2,C124389,carbon-dioxide,304.18,73.8,10.6,0.09433962264150944,1.9,8.807588075880759,0.0008880467999999999
577.94,652.46,11966.0,8.357e-05,24.726,30.179,87.9,41.518,62.442,532.57,0.027716,49.401,0.071526,supercritical,CO2,C124389,carbon-dioxide,304.18,73.8,10.6,0.09433962264150944,1.9,8.840921409214094,0.000885842
577.94,654.92,11996.0,8.3364e-05,24.715,30.174,87.858,41.523,62.45,533.53,0.027364,49.516,0.07165,supercritical,CO2,C124389,carbon-dioxide,304.18,73.8,10.6,0.09433962264150944,1.9,8.874254742547425,0.0008836583999999999
577.94,657.38,12025.0,8.316e-05,24.704,30.17,87.815,41.529,62.459,534.5,0.027015,49.631,0.071774,supercritical,CO2,C124389,carbon-dioxide,304.18,73.8,10.6,0.09433962264150944,1.9,8.90758807588076,0.000881496
577.94,659.83,12054.0,8.2957e-05,24.692,30.166,87.772,41.534,62.466,535.46,0.026669,49.746,0.071897,supercritical,CO2,C124389,carbon-dioxide,304.18,73.8,10.6,0.09433962264150944,1.9,8.94078590785908,0.0008793442
577.94,662.29,12084.0,8.2757e-05,24.681,30.162,87.73,41.539,62.474,536.42,0.026324,49.86,0.072021,supercritical,CO2,C124389,carbon-dioxide,304.18,73.8,10.6,0.09433962264150944,1.9,8.974119241192412,0.0008772241999999999
577.94,664.75,12113.0,8.2557e-05,24.67,30.158,87.688,41.544,62.482,537.39,0.025982,49.975,0.072144,supercritical,CO2,C124389,carbon-dioxide,304.18,73.8,10.6,0.09433962264150944,1.9,9.007452574525745,0.0008751042
577.94,667.21,12142.0,8.236e-05,24.659,30.154,87.646,41.55,62.489,538.35,0.025643,50.09,0.072267,supercritical,CO2,C124389,carbon-dioxide,304.18,73.8,10.6,0.09433962264150944,1.9,9.04078590785908,0.000873016
577.94,669.67,12171.0,8.2164e-05,24.648,30.15,87.604,41.555,62.496,539.31,0.025305,50.205,0.072389,supercritical,CO2,C124389,carbon-dioxide,304.18,73.8,10.6,0.09433962264150944,1.9,9.074119241192411,0.0008709383999999998
577.94,672.13,12200.0,8.197e-05,24.637,30.146,87.563,41.56,62.504,540.27,0.02497,50.319,0.072512,supercritical,CO2,C124389,carbon-dioxide,304.18,73.8,10.6,0.09433962264150944,1.9,9.107452574525746,0.000868882
577.94,674.58,12228.0,8.1777e-05,24.626,30.143,87.521,41.565,62.51,541.23,0.024637,50.434,0.072634,supercritical,CO2,C124389,carbon-dioxide,304.18,73.8,10.6,0.09433962264150944,1.9,9.140650406504067,0.0008668361999999999