Temperature (K),Pressure (bar),Density (mol/m3),Volume (m3/mol),Internal Energy (kJ/mol),Enthalpy (kJ/mol),Entropy (J/mol*K),Cv (J/mol*K),Cp (J/mol*K),Sound Spd. (m/s),Joule-Thomson (K/bar),Viscosity (uPa*s),Therm. Cond. (W/m*K),Phase,substance,substance_id,substance_name,Tc,Pc,rhoc,Vmc,Tr,Pr,Vmr
776.4,1406.5,33921.0,2.9481e-05,36.54,40.687,77.893,47.462,86.603,1047.5,0.022972,76.036,0.47934,supercritical,H2O,C7732185,water,647.0,220.64,17.9,0.0558659217877095,1.2,6.3746374184191446,0.0005277099
776.4,1413.9,33988.0,2.9422e-05,36.512,40.672,77.847,47.46,86.443,1050.6,0.022635,76.198,0.4805,supercritical,H2O,C7732185,water,647.0,220.64,17.9,0.0558659217877095,1.2,6.408176214648297,0.0005266538
776.4,1421.2,34055.0,2.9364e-05,36.484,40.658,77.8,47.459,86.286,1053.7,0.022303,76.36,0.48166,supercritical,H2O,C7732185,water,647.0,220.64,17.9,0.0558659217877095,1.2,6.441261783901378,0.0005256156
776.4,1428.6,34122.0,2.9307e-05,36.457,40.644,77.755,47.458,86.131,1056.7,0.021975,76.52,0.48282,supercritical,H2O,C7732185,water,647.0,220.64,17.9,0.0558659217877095,1.2,6.4748005801305295,0.0005245953
776.4,1435.9,34188.0,2.925e-05,36.43,40.63,77.709,47.457,85.977,1059.8,0.021652,76.68,0.48396,supercritical,H2O,C7732185,water,647.0,220.64,17.9,0.0558659217877095,1.2,6.507886149383612,0.000523575
776.4,1443.3,34253.0,2.9194e-05,36.403,40.616,77.664,47.456,85.826,1062.8,0.021334,76.84,0.48511,supercritical,H2O,C7732185,water,647.0,220.64,17.9,0.0558659217877095,1.2,6.541424945612763,0.0005225725999999999
776.4,1450.6,34319.0,2.9139e-05,36.376,40.603,77.619,47.456,85.676,1065.8,0.02102,76.998,0.48624,supercritical,H2O,C7732185,water,647.0,220.64,17.9,0.0558659217877095,1.2,6.574510514865845,0.0005215881
776.4,1458.0,34383.0,2.9084e-05,36.35,40.59,77.575,47.455,85.528,1068.8,0.02071,77.156,0.48738,supercritical,H2O,C7732185,water,647.0,220.64,17.9,0.0558659217877095,1.2,6.608049311094997,0.0005206036
776.4,1465.3,34447.0,2.903e-05,36.323,40.577,77.531,47.454,85.382,1071.8,0.020404,77.313,0.4885,supercritical,H2O,C7732185,water,647.0,220.64,17.9,0.0558659217877095,1.2,6.641134880348078,0.000519637
776.4,1472.7,34511.0,2.8976e-05,36.297,40.564,77.487,47.454,85.238,1074.7,0.020103,77.469,0.48963,supercritical,H2O,C7732185,water,647.0,220.64,17.9,0.0558659217877095,1.2,6.67467367657723,0.0005186704
776.4,1480.0,34574.0,2.8923e-05,36.271,40.552,77.443,47.453,85.096,1077.7,0.019805,77.625,0.49074,supercritical,H2O,C7732185,water,647.0,220.64,17.9,0.0558659217877095,1.2,6.707759245830312,0.0005177217
776.4,1487.4,34637.0,2.8871e-05,36.245,40.54,77.4,47.453,84.955,1080.6,0.019512,77.78,0.49186,supercritical,H2O,C7732185,water,647.0,220.64,17.9,0.0558659217877095,1.2,6.741298042059464,0.0005167908999999999
776.4,1494.7,34699.0,2.8819e-05,36.22,40.527,77.357,47.453,84.816,1083.5,0.019222,77.934,0.49296,supercritical,H2O,C7732185,water,647.0,220.64,17.9,0.0558659217877095,1.2,6.774383611312546,0.0005158601
776.4,1502.1,34761.0,2.8768e-05,36.194,40.516,77.315,47.452,84.679,1086.4,0.018937,78.088,0.49407,supercritical,H2O,C7732185,water,647.0,220.64,17.9,0.0558659217877095,1.2,6.807922407541697,0.0005149471999999999
776.4,1509.4,34823.0,2.8717e-05,36.169,40.504,77.273,47.452,84.544,1089.3,0.018654,78.241,0.49516,supercritical,H2O,C7732185,water,647.0,220.64,17.9,0.0558659217877095,1.2,6.84100797679478,0.0005140343
776.4,1516.8,34884.0,2.8667e-05,36.144,40.492,77.231,47.452,84.409,1092.2,0.018376,78.393,0.49626,supercritical,H2O,C7732185,water,647.0,220.64,17.9,0.0558659217877095,1.2,6.874546773023931,0.0005131392999999999
776.4,1524.1,34944.0,2.8617e-05,36.12,40.481,77.189,47.452,84.277,1095.1,0.018101,78.545,0.49735,supercritical,H2O,C7732185,water,647.0,220.64,17.9,0.0558659217877095,1.2,6.9076323422770125,0.0005122443
776.4,1531.5,35004.0,2.8568e-05,36.095,40.47,77.148,47.452,84.146,1098.0,0.01783,78.696,0.49843,supercritical,H2O,C7732185,water,647.0,220.64,17.9,0.0558659217877095,1.2,6.9411711385061645,0.0005113671999999999
776.4,1538.8,35064.0,2.8519e-05,36.071,40.459,77.106,47.452,84.017,1100.8,0.017562,78.846,0.49951,supercritical,H2O,C7732185,water,647.0,220.64,17.9,0.0558659217877095,1.2,6.974256707759246,0.0005104901
776.4,1546.1,35124.0,2.8471e-05,36.046,40.448,77.066,47.452,83.889,1103.7,0.017297,78.996,0.50059,supercritical,H2O,C7732185,water,647.0,220.64,17.9,0.0558659217877095,1.2,7.007342277012328,0.0005096308999999999
776.4,1553.5,35183.0,2.8423e-05,36.022,40.438,77.025,47.453,83.762,1106.5,0.017036,79.145,0.50166,supercritical,H2O,C7732185,water,647.0,220.64,17.9,0.0558659217877095,1.2,7.04088107324148,0.0005087716999999999
776.4,1560.8,35241.0,2.8376e-05,35.998,40.427,76.985,47.453,83.637,1109.3,0.016778,79.293,0.50273,supercritical,H2O,C7732185,water,647.0,220.64,17.9,0.0558659217877095,1.2,7.073966642494561,0.0005079304
776.4,1568.2,35299.0,2.8329e-05,35.975,40.417,76.945,47.453,83.514,1112.1,0.016524,79.441,0.50379,supercritical,H2O,C7732185,water,647.0,220.64,17.9,0.0558659217877095,1.2,7.107505438723713,0.0005070891
776.4,1575.5,35357.0,2.8283e-05,35.951,40.407,76.905,47.454,83.391,1114.9,0.016272,79.588,0.50485,supercritical,H2O,C7732185,water,647.0,220.64,17.9,0.0558659217877095,1.2,7.140591007976795,0.0005062657
776.4,1582.9,35415.0,2.8237e-05,35.928,40.397,76.866,47.454,83.27,1117.6,0.016023,79.735,0.50591,supercritical,H2O,C7732185,water,647.0,220.64,17.9,0.0558659217877095,1.2,7.174129804205947,0.0005054422999999999
776.4,1590.2,35472.0,2.8191e-05,35.904,40.387,76.826,47.455,83.151,1120.4,0.015778,79.881,0.50696,supercritical,H2O,C7732185,water,647.0,220.64,17.9,0.0558659217877095,1.2,7.207215373459029,0.0005046189
776.4,1597.6,35529.0,2.8146e-05,35.881,40.378,76.787,47.456,83.033,1123.2,0.015535,80.027,0.50801,supercritical,H2O,C7732185,water,647.0,220.64,17.9,0.0558659217877095,1.2,7.24075416968818,0.0005038134
776.4,1604.9,35585.0,2.8102e-05,35.858,40.368,76.749,47.456,82.916,1125.9,0.015296,80.171,0.50905,supercritical,H2O,C7732185,water,647.0,220.64,17.9,0.0558659217877095,1.2,7.273839738941263,0.0005030258
776.4,1612.3,35641.0,2.8057e-05,35.836,40.359,76.71,47.457,82.8,1128.6,0.015059,80.316,0.51009,supercritical,H2O,C7732185,water,647.0,220.64,17.9,0.0558659217877095,1.2,7.307378535170414,0.0005022202999999999
776.4,1619.6,35697.0,2.8014e-05,35.813,40.35,76.672,47.458,82.685,1131.4,0.014825,80.46,0.51113,supercritical,H2O,C7732185,water,647.0,220.64,17.9,0.0558659217877095,1.2,7.3404641044234955,0.0005014506
776.4,1627.0,35752.0,2.797e-05,35.79,40.341,76.634,47.459,82.572,1134.1,0.014593,80.603,0.51216,supercritical,H2O,C7732185,water,647.0,220.64,17.9,0.0558659217877095,1.2,7.3740029006526475,0.000500663
776.4,1634.3,35807.0,2.7927e-05,35.768,40.332,76.596,47.46,82.46,1136.8,0.014365,80.746,0.51319,supercritical,H2O,C7732185,water,647.0,220.64,17.9,0.0558659217877095,1.2,7.407088469905729,0.0004998933
776.4,1641.7,35862.0,2.7885e-05,35.746,40.324,76.559,47.46,82.349,1139.4,0.014139,80.888,0.51421,supercritical,H2O,C7732185,water,647.0,220.64,17.9,0.0558659217877095,1.2,7.440627266134881,0.0004991415
776.4,1649.0,35916.0,2.7843e-05,35.724,40.315,76.521,47.461,82.24,1142.1,0.013916,81.029,0.51523,supercritical,H2O,C7732185,water,647.0,220.64,17.9,0.0558659217877095,1.2,7.473712835387963,0.0004983897
776.4,1656.4,35970.0,2.7801e-05,35.702,40.307,76.484,47.463,82.131,1144.8,0.013695,81.17,0.51625,supercritical,H2O,C7732185,water,647.0,220.64,17.9,0.0558659217877095,1.2,7.507251631617114,0.0004976379
776.4,1663.7,36024.0,2.7759e-05,35.68,40.299,76.447,47.464,82.024,1147.4,0.013477,81.311,0.51727,supercritical,H2O,C7732185,water,647.0,220.64,17.9,0.0558659217877095,1.2,7.540337200870196,0.0004968860999999999
776.4,1671.1,36077.0,2.7718e-05,35.659,40.291,76.411,47.465,81.917,1150.1,0.013261,81.451,0.51828,supercritical,H2O,C7732185,water,647.0,220.64,17.9,0.0558659217877095,1.2,7.573875997099347,0.0004961522
776.4,1678.4,36130.0,2.7678e-05,35.637,40.283,76.374,47.466,81.812,1152.7,0.013048,81.591,0.51929,supercritical,H2O,C7732185,water,647.0,220.64,17.9,0.0558659217877095,1.2,7.60696156635243,0.0004954362
776.4,1685.8,36183.0,2.7637e-05,35.616,40.275,76.338,47.467,81.708,1155.3,0.012837,81.73,0.52029,supercritical,H2O,C7732185,water,647.0,220.64,17.9,0.0558659217877095,1.2,7.640500362581581,0.0004947023
776.4,1693.1,36236.0,2.7597e-05,35.595,40.267,76.302,47.469,81.605,1157.9,0.012628,81.868,0.52129,supercritical,H2O,C7732185,water,647.0,220.64,17.9,0.0558659217877095,1.2,7.673585931834663,0.0004939863
776.4,1700.5,36288.0,2.7558e-05,35.574,40.26,76.266,47.47,81.503,1160.5,0.012422,82.006,0.52229,supercritical,H2O,C7732185,water,647.0,220.64,17.9,0.0558659217877095,1.2,7.707124728063815,0.0004932882
776.4,1707.8,36340.0,2.7518e-05,35.553,40.253,76.231,47.471,81.402,1163.1,0.012218,82.144,0.52328,supercritical,H2O,C7732185,water,647.0,220.64,17.9,0.0558659217877095,1.2,7.740210297316897,0.0004925722
776.4,1715.2,36391.0,2.7479e-05,35.532,40.245,76.196,47.473,81.302,1165.7,0.012016,82.281,0.52427,supercritical,H2O,C7732185,water,647.0,220.64,17.9,0.0558659217877095,1.2,7.773749093546049,0.0004918740999999999
776.4,1722.5,36442.0,2.7441e-05,35.511,40.238,76.16,47.474,81.203,1168.3,0.011817,82.417,0.52526,supercritical,H2O,C7732185,water,647.0,220.64,17.9,0.0558659217877095,1.2,7.8068346627991305,0.0004911939
776.4,1729.9,36493.0,2.7402e-05,35.491,40.231,76.125,47.476,81.105,1170.9,0.011619,82.553,0.52625,supercritical,H2O,C7732185,water,647.0,220.64,17.9,0.0558659217877095,1.2,7.8403734590282825,0.0004904957999999999
776.4,1737.2,36544.0,2.7364e-05,35.471,40.224,76.091,47.477,81.008,1173.4,0.011424,82.689,0.52723,supercritical,H2O,C7732185,water,647.0,220.64,17.9,0.0558659217877095,1.2,7.873459028281364,0.0004898156
776.4,1744.6,36594.0,2.7327e-05,35.45,40.218,76.056,47.479,80.912,1175.9,0.011231,82.824,0.52821,supercritical,H2O,C7732185,water,647.0,220.64,17.9,0.0558659217877095,1.2,7.906997824510515,0.0004891533
776.4,1751.9,36645.0,2.7289e-05,35.43,40.211,76.022,47.48,80.817,1178.5,0.01104,82.959,0.52918,supercritical,H2O,C7732185,water,647.0,220.64,17.9,0.0558659217877095,1.2,7.940083393763597,0.0004884730999999999
776.4,1759.3,36694.0,2.7252e-05,35.41,40.204,75.988,47.482,80.722,1181.0,0.010851,83.093,0.53016,supercritical,H2O,C7732185,water,647.0,220.64,17.9,0.0558659217877095,1.2,7.973622189992748,0.0004878108
776.4,1766.6,36744.0,2.7215e-05,35.39,40.198,75.954,47.484,80.629,1183.5,0.010664,83.227,0.53113,supercritical,H2O,C7732185,water,647.0,220.64,17.9,0.0558659217877095,1.2,8.006707759245831,0.00048714849999999997
776.4,1773.9,36793.0,2.7179e-05,35.37,40.192,75.92,47.485,80.537,1186.0,0.010478,83.36,0.53209,supercritical,H2O,C7732185,water,647.0,220.64,17.9,0.0558659217877095,1.2,8.039793328498913,0.00048650409999999994
776.4,1781.3,36842.0,2.7143e-05,35.351,40.186,75.886,47.487,80.445,1188.5,0.010295,83.493,0.53306,supercritical,H2O,C7732185,water,647.0,220.64,17.9,0.0558659217877095,1.2,8.073332124728065,0.00048585969999999997
776.4,1788.6,36891.0,2.7107e-05,35.331,40.18,75.853,47.489,80.354,1191.0,0.010114,83.625,0.53402,supercritical,H2O,C7732185,water,647.0,220.64,17.9,0.0558659217877095,1.2,8.106417693981145,0.0004852153
776.4,1796.0,36940.0,2.7071e-05,35.312,40.174,75.819,47.491,80.264,1193.5,0.0099345,83.757,0.53498,supercritical,H2O,C7732185,water,647.0,220.64,17.9,0.0558659217877095,1.2,8.139956490210297,0.00048457089999999996
776.4,1803.3,36988.0,2.7036e-05,35.292,40.168,75.786,47.493,80.175,1196.0,0.0097569,83.889,0.53593,supercritical,H2O,C7732185,water,647.0,220.64,17.9,0.0558659217877095,1.2,8.173042059463379,0.00048394439999999996
776.4,1810.7,37036.0,2.7001e-05,35.273,40.162,75.754,47.495,80.087,1198.4,0.0095811,84.02,0.53689,supercritical,H2O,C7732185,water,647.0,220.64,17.9,0.0558659217877095,1.2,8.20658085569253,0.0004833179
776.4,1818.0,37084.0,2.6966e-05,35.254,40.157,75.721,47.497,80.0,1200.9,0.0094071,84.15,0.53784,supercritical,H2O,C7732185,water,647.0,220.64,17.9,0.0558659217877095,1.2,8.239666424945613,0.00048269139999999996
776.4,1825.4,37131.0,2.6931e-05,35.235,40.151,75.688,47.499,79.913,1203.3,0.0092349,84.281,0.53878,supercritical,H2O,C7732185,water,647.0,220.64,17.9,0.0558659217877095,1.2,8.273205221174765,0.00048206489999999997
776.4,1832.7,37179.0,2.6897e-05,35.216,40.146,75.656,47.501,79.827,1205.8,0.0090644,84.41,0.53973,supercritical,H2O,C7732185,water,647.0,220.64,17.9,0.0558659217877095,1.2,8.306290790427846,0.00048145629999999995
776.4,1840.1,37226.0,2.6863e-05,35.197,40.141,75.624,47.503,79.742,1208.2,0.0088956,84.54,0.54067,supercritical,H2O,C7732185,water,647.0,220.64,17.9,0.0558659217877095,1.2,8.339829586656998,0.0004808477
776.4,1847.4,37272.0,2.683e-05,35.179,40.135,75.592,47.505,79.658,1210.6,0.0087285,84.669,0.54161,supercritical,H2O,C7732185,water,647.0,220.64,17.9,0.0558659217877095,1.2,8.37291515591008,0.00048025699999999994
776.4,1854.8,37319.0,2.6796e-05,35.16,40.13,75.56,47.507,79.574,1213.0,0.0085631,84.797,0.54255,supercritical,H2O,C7732185,water,647.0,220.64,17.9,0.0558659217877095,1.2,8.406453952139232,0.0004796484
776.4,1862.1,37365.0,2.6763e-05,35.142,40.125,75.528,47.509,79.492,1215.4,0.0083992,84.926,0.54348,supercritical,H2O,C7732185,water,647.0,220.64,17.9,0.0558659217877095,1.2,8.439539521392314,0.0004790577
776.4,1869.5,37411.0,2.673e-05,35.123,40.121,75.496,47.511,79.41,1217.8,0.008237,85.053,0.54441,supercritical,H2O,C7732185,water,647.0,220.64,17.9,0.0558659217877095,1.2,8.473078317621466,0.00047846699999999994
776.4,1876.8,37457.0,2.6697e-05,35.105,40.116,75.465,47.513,79.328,1220.2,0.0080764,85.181,0.54534,supercritical,H2O,C7732185,water,647.0,220.64,17.9,0.0558659217877095,1.2,8.506163886874548,0.00047787629999999996
776.4,1884.2,37503.0,2.6665e-05,35.087,40.111,75.434,47.515,79.248,1222.6,0.0079173,85.308,0.54627,supercritical,H2O,C7732185,water,647.0,220.64,17.9,0.0558659217877095,1.2,8.5397026831037,0.00047730349999999995
776.4,1891.5,37548.0,2.6632e-05,35.069,40.107,75.403,47.518,79.168,1225.0,0.0077598,85.434,0.54719,supercritical,H2O,C7732185,water,647.0,220.64,17.9,0.0558659217877095,1.2,8.57278825235678,0.00047671279999999996
776.4,1898.9,37593.0,2.66e-05,35.051,40.102,75.372,47.52,79.089,1227.3,0.0076038,85.561,0.54811,supercritical,H2O,C7732185,water,647.0,220.64,17.9,0.0558659217877095,1.2,8.606327048585932,0.00047613999999999995
776.4,1906.2,37638.0,2.6569e-05,35.033,40.098,75.341,47.522,79.01,1229.7,0.0074492,85.686,0.54903,supercritical,H2O,C7732185,water,647.0,220.64,17.9,0.0558659217877095,1.2,8.639412617839014,0.0004755851
776.4,1913.6,37683.0,2.6537e-05,35.015,40.093,75.31,47.524,78.933,1232.0,0.0072962,85.812,0.54995,supercritical,H2O,C7732185,water,647.0,220.64,17.9,0.0558659217877095,1.2,8.672951414068166,0.00047501229999999997
776.4,1920.9,37728.0,2.6506e-05,34.998,40.089,75.28,47.527,78.855,1234.4,0.0071446,85.937,0.55086,supercritical,H2O,C7732185,water,647.0,220.64,17.9,0.0558659217877095,1.2,8.706036983321248,0.0004744574
776.4,1928.3,37772.0,2.6475e-05,34.98,40.085,75.249,47.529,78.779,1236.7,0.0069944,86.062,0.55177,supercritical,H2O,C7732185,water,647.0,220.64,17.9,0.0558659217877095,1.2,8.7395757795504,0.00047390249999999996
776.4,1935.6,37816.0,2.6444e-05,34.963,40.081,75.219,47.531,78.703,1239.0,0.0068456,86.186,0.55268,supercritical,H2O,C7732185,water,647.0,220.64,17.9,0.0558659217877095,1.2,8.772661348803481,0.0004733476
776.4,1943.0,37860.0,2.6413e-05,34.945,40.077,75.189,47.534,78.628,1241.3,0.0066983,86.31,0.55359,supercritical,H2O,C7732185,water,647.0,220.64,17.9,0.0558659217877095,1.2,8.806200145032633,0.00047279269999999995
776.4,1950.3,37904.0,2.6383e-05,34.928,40.073,75.159,47.536,78.553,1243.6,0.0065523,86.433,0.5545,supercritical,H2O,C7732185,water,647.0,220.64,17.9,0.0558659217877095,1.2,8.839285714285715,0.0004722557
776.4,1957.7,37947.0,2.6353e-05,34.911,40.07,75.129,47.539,78.48,1245.9,0.0064076,86.557,0.5554,supercritical,H2O,C7732185,water,647.0,220.64,17.9,0.0558659217877095,1.2,8.872824510514867,0.00047171869999999995
776.4,1965.0,37990.0,2.6322e-05,34.894,40.066,75.1,47.541,78.406,1248.2,0.0062643,86.68,0.5563,supercritical,H2O,C7732185,water,647.0,220.64,17.9,0.0558659217877095,1.2,8.90591007976795,0.0004711638
776.4,1972.4,38033.0,2.6293e-05,34.877,40.062,75.07,47.544,78.334,1250.5,0.0061223,86.802,0.5572,supercritical,H2O,C7732185,water,647.0,220.64,17.9,0.0558659217877095,1.2,8.939448875997101,0.00047064469999999996
776.4,1979.7,38076.0,2.6263e-05,34.86,40.059,75.041,47.546,78.262,1252.8,0.0059816,86.924,0.55809,supercritical,H2O,C7732185,water,647.0,220.64,17.9,0.0558659217877095,1.2,8.972534445250181,0.00047010769999999996
776.4,1987.1,38119.0,2.6234e-05,34.843,40.056,75.012,47.549,78.19,1255.1,0.0058421,87.046,0.55899,supercritical,H2O,C7732185,water,647.0,220.64,17.9,0.0558659217877095,1.2,9.006073241479333,0.0004695886
776.4,1994.4,38161.0,2.6204e-05,34.826,40.052,74.983,47.551,78.119,1257.3,0.0057039,87.167,0.55988,supercritical,H2O,C7732185,water,647.0,220.64,17.9,0.0558659217877095,1.2,9.039158810732415,0.00046905159999999994
776.4,2001.7,38204.0,2.6175e-05,34.809,40.049,74.954,47.554,78.049,1259.6,0.005567,87.288,0.56077,supercritical,H2O,C7732185,water,647.0,220.64,17.9,0.0558659217877095,1.2,9.072244379985497,0.0004685325
776.4,2009.1,38246.0,2.6147e-05,34.793,40.046,74.925,47.556,77.979,1261.9,0.0054313,87.409,0.56166,supercritical,H2O,C7732185,water,647.0,220.64,17.9,0.0558659217877095,1.2,9.105783176214649,0.00046803129999999993
776.4,2016.4,38288.0,2.6118e-05,34.776,40.043,74.896,47.559,77.91,1264.1,0.0052968,87.53,0.56254,supercritical,H2O,C7732185,water,647.0,220.64,17.9,0.0558659217877095,1.2,9.13886874546773,0.00046751219999999997
776.4,2023.8,38329.0,2.609e-05,34.76,40.04,74.868,47.561,77.841,1266.3,0.0051635,87.65,0.56342,supercritical,H2O,C7732185,water,647.0,220.64,17.9,0.0558659217877095,1.2,9.172407541696883,0.000467011
776.4,2031.1,38371.0,2.6061e-05,34.743,40.037,74.839,47.564,77.773,1268.6,0.0050314,87.769,0.56431,supercritical,H2O,C7732185,water,647.0,220.64,17.9,0.0558659217877095,1.2,9.205493110949964,0.00046649189999999996
776.4,2038.5,38412.0,2.6033e-05,34.727,40.034,74.811,47.567,77.706,1270.8,0.0049005,87.889,0.56519,supercritical,H2O,C7732185,water,647.0,220.64,17.9,0.0558659217877095,1.2,9.239031907179116,0.00046599069999999997
776.4,2045.8,38454.0,2.6005e-05,34.711,40.031,74.783,47.569,77.639,1273.0,0.0047707,88.008,0.56606,supercritical,H2O,C7732185,water,647.0,220.64,17.9,0.0558659217877095,1.2,9.272117476432198,0.0004654895
776.4,2053.2,38495.0,2.5978e-05,34.695,40.029,74.755,47.572,77.572,1275.2,0.004642,88.126,0.56694,supercritical,H2O,C7732185,water,647.0,220.64,17.9,0.0558659217877095,1.2,9.305656272661349,0.00046500619999999997
776.4,2060.5,38535.0,2.595e-05,34.679,40.026,74.727,47.575,77.506,1277.4,0.0045144,88.245,0.56781,supercritical,H2O,C7732185,water,647.0,220.64,17.9,0.0558659217877095,1.2,9.338741841914432,0.000464505
776.4,2067.9,38576.0,2.5923e-05,34.663,40.023,74.699,47.578,77.441,1279.6,0.004388,88.363,0.56868,supercritical,H2O,C7732185,water,647.0,220.64,17.9,0.0558659217877095,1.2,9.372280638143584,0.0004640217
776.4,2075.2,38616.0,2.5896e-05,34.647,40.021,74.671,47.58,77.376,1281.8,0.0042626,88.481,0.56955,supercritical,H2O,C7732185,water,647.0,220.64,17.9,0.0558659217877095,1.2,9.405366207396664,0.00046353839999999997
776.4,2082.6,38657.0,2.5869e-05,34.631,40.019,74.644,47.583,77.312,1284.0,0.0041384,88.598,0.57042,supercritical,H2O,C7732185,water,647.0,220.64,17.9,0.0558659217877095,1.2,9.438905003625816,0.00046305509999999996
776.4,2089.9,38697.0,2.5842e-05,34.616,40.016,74.616,47.586,77.248,1286.2,0.0040151,88.715,0.57128,supercritical,H2O,C7732185,water,647.0,220.64,17.9,0.0558659217877095,1.2,9.471990572878898,0.0004625718
776.4,2097.3,38737.0,2.5815e-05,34.6,40.014,74.589,47.589,77.184,1288.3,0.003893,88.832,0.57215,supercritical,H2O,C7732185,water,647.0,220.64,17.9,0.0558659217877095,1.2,9.50552936910805,0.00046208849999999994