Temperature (K),Pressure (bar),Density (mol/m3),Volume (m3/mol),Internal Energy (kJ/mol),Enthalpy (kJ/mol),Entropy (J/mol*K),Cv (J/mol*K),Cp (J/mol*K),Sound Spd. (m/s),Joule-Thomson (K/bar),Viscosity (uPa*s),Therm. Cond. (W/m*K),Phase,substance,substance_id,substance_name,Tc,Pc,rhoc,Vmc,Tr,Pr,Vmr
262.79,391.39,17637.0,5.67e-05,2.8589,5.0781,143.98,23.335,46.085,475.76,0.034055,40.469,0.057588,supercritical,O2,C7782447,oxygen,154.58,50.43,13.6,0.07352941176470588,1.7,7.761054927622447,0.00077112
262.79,392.75,17674.0,5.658e-05,2.8537,5.0759,143.94,23.338,46.07,476.66,0.0336,40.555,0.057702,supercritical,O2,C7782447,oxygen,154.58,50.43,13.6,0.07352941176470588,1.7,7.788023002181242,0.0007694879999999999
262.79,394.12,17711.0,5.6462e-05,2.8486,5.0738,143.9,23.341,46.056,477.56,0.033148,40.64,0.057815,supercritical,O2,C7782447,oxygen,154.58,50.43,13.6,0.07352941176470588,1.7,7.81518937140591,0.0007678832
262.79,395.49,17748.0,5.6345e-05,2.8434,5.0718,143.86,23.345,46.041,478.46,0.032699,40.726,0.057928,supercritical,O2,C7782447,oxygen,154.58,50.43,13.6,0.07352941176470588,1.7,7.842355740630577,0.0007662919999999999
262.79,396.85,17784.0,5.6229e-05,2.8383,5.0697,143.83,23.348,46.027,479.36,0.032254,40.811,0.058041,supercritical,O2,C7782447,oxygen,154.58,50.43,13.6,0.07352941176470588,1.7,7.869323815189372,0.0007647144
262.79,398.21,17821.0,5.6114e-05,2.8332,5.0677,143.79,23.352,46.012,480.26,0.031813,40.896,0.058154,supercritical,O2,C7782447,oxygen,154.58,50.43,13.6,0.07352941176470588,1.7,7.8962918897481655,0.0007631503999999999
262.79,399.58,17857.0,5.5999e-05,2.8281,5.0657,143.75,23.355,45.997,481.16,0.031374,40.982,0.058266,supercritical,O2,C7782447,oxygen,154.58,50.43,13.6,0.07352941176470588,1.7,7.9234582589728335,0.0007615863999999999
262.79,400.94,17894.0,5.5886e-05,2.8231,5.0638,143.72,23.359,45.983,482.05,0.030939,41.067,0.058379,supercritical,O2,C7782447,oxygen,154.58,50.43,13.6,0.07352941176470588,1.7,7.950426333531628,0.0007600495999999999
262.79,402.31,17930.0,5.5774e-05,2.818,5.0619,143.68,23.362,45.968,482.95,0.030508,41.152,0.058491,supercritical,O2,C7782447,oxygen,154.58,50.43,13.6,0.07352941176470588,1.7,7.977592702756296,0.0007585264
262.79,403.68,17966.0,5.5662e-05,2.813,5.06,143.64,23.366,45.953,483.84,0.03008,41.236,0.058603,supercritical,O2,C7782447,oxygen,154.58,50.43,13.6,0.07352941176470588,1.7,8.004759071980963,0.0007570032
262.79,405.04,18001.0,5.5552e-05,2.808,5.0581,143.61,23.369,45.938,484.74,0.029654,41.321,0.058715,supercritical,O2,C7782447,oxygen,154.58,50.43,13.6,0.07352941176470588,1.7,8.031727146539758,0.0007555072
262.79,406.4,18037.0,5.5442e-05,2.803,5.0562,143.57,23.373,45.923,485.63,0.029233,41.406,0.058827,supercritical,O2,C7782447,oxygen,154.58,50.43,13.6,0.07352941176470588,1.7,8.058695221098551,0.0007540112
262.79,407.77,18072.0,5.5333e-05,2.7981,5.0544,143.54,23.376,45.908,486.52,0.028814,41.49,0.058938,supercritical,O2,C7782447,oxygen,154.58,50.43,13.6,0.07352941176470588,1.7,8.08586159032322,0.0007525288
262.79,409.13,18108.0,5.5225e-05,2.7932,5.0526,143.5,23.379,45.893,487.41,0.028398,41.574,0.059049,supercritical,O2,C7782447,oxygen,154.58,50.43,13.6,0.07352941176470588,1.7,8.112829664882014,0.00075106
262.79,410.5,18143.0,5.5118e-05,2.7883,5.0509,143.47,23.383,45.878,488.31,0.027986,41.658,0.059161,supercritical,O2,C7782447,oxygen,154.58,50.43,13.6,0.07352941176470588,1.7,8.139996034106682,0.0007496048
262.79,411.87,18178.0,5.5012e-05,2.7834,5.0491,143.43,23.386,45.863,489.19,0.027577,41.743,0.059271,supercritical,O2,C7782447,oxygen,154.58,50.43,13.6,0.07352941176470588,1.7,8.16716240333135,0.0007481632
262.79,413.23,18213.0,5.4907e-05,2.7785,5.0474,143.39,23.39,45.848,490.08,0.02717,41.827,0.059382,supercritical,O2,C7782447,oxygen,154.58,50.43,13.6,0.07352941176470588,1.7,8.194130477890145,0.0007467352
262.79,414.6,18248.0,5.4802e-05,2.7737,5.0457,143.36,23.393,45.833,490.97,0.026767,41.91,0.059493,supercritical,O2,C7782447,oxygen,154.58,50.43,13.6,0.07352941176470588,1.7,8.221296847114813,0.0007453072
262.79,415.96,18282.0,5.4698e-05,2.7688,5.0441,143.33,23.396,45.818,491.86,0.026367,41.994,0.059603,supercritical,O2,C7782447,oxygen,154.58,50.43,13.6,0.07352941176470588,1.7,8.248264921673607,0.0007438928
262.79,417.32,18317.0,5.4595e-05,2.764,5.0424,143.29,23.4,45.802,492.74,0.02597,42.078,0.059714,supercritical,O2,C7782447,oxygen,154.58,50.43,13.6,0.07352941176470588,1.7,8.2752329962324,0.000742492
262.79,418.69,18351.0,5.4493e-05,2.7592,5.0408,143.26,23.403,45.787,493.63,0.025576,42.161,0.059824,supercritical,O2,C7782447,oxygen,154.58,50.43,13.6,0.07352941176470588,1.7,8.302399365457068,0.0007411048
262.79,420.06,18385.0,5.4392e-05,2.7545,5.0392,143.22,23.407,45.772,494.51,0.025184,42.245,0.059934,supercritical,O2,C7782447,oxygen,154.58,50.43,13.6,0.07352941176470588,1.7,8.329565734681736,0.0007397311999999999
262.79,421.42,18419.0,5.4291e-05,2.7497,5.0377,143.19,23.41,45.757,495.39,0.024796,42.328,0.060044,supercritical,O2,C7782447,oxygen,154.58,50.43,13.6,0.07352941176470588,1.7,8.356533809240531,0.0007383575999999999
262.79,422.79,18453.0,5.4192e-05,2.745,5.0361,143.15,23.413,45.741,496.28,0.02441,42.411,0.060153,supercritical,O2,C7782447,oxygen,154.58,50.43,13.6,0.07352941176470588,1.7,8.3837001784652,0.0007370111999999999
262.79,424.15,18487.0,5.4093e-05,2.7403,5.0346,143.12,23.417,45.726,497.16,0.024028,42.494,0.060263,supercritical,O2,C7782447,oxygen,154.58,50.43,13.6,0.07352941176470588,1.7,8.410668253023994,0.0007356648
262.79,425.51,18520.0,5.3994e-05,2.7356,5.0331,143.09,23.42,45.711,498.04,0.023648,42.577,0.060372,supercritical,O2,C7782447,oxygen,154.58,50.43,13.6,0.07352941176470588,1.7,8.437636327582787,0.0007343184
262.79,426.88,18554.0,5.3897e-05,2.7309,5.0317,143.05,23.423,45.696,498.91,0.023271,42.66,0.060481,supercritical,O2,C7782447,oxygen,154.58,50.43,13.6,0.07352941176470588,1.7,8.464802696807455,0.0007329992
262.79,428.25,18587.0,5.38e-05,2.7263,5.0302,143.02,23.427,45.68,499.79,0.022896,42.743,0.06059,supercritical,O2,C7782447,oxygen,154.58,50.43,13.6,0.07352941176470588,1.7,8.491969066032123,0.00073168
262.79,429.61,18621.0,5.3704e-05,2.7216,5.0288,142.99,23.43,45.665,500.67,0.022525,42.826,0.060699,supercritical,O2,C7782447,oxygen,154.58,50.43,13.6,0.07352941176470588,1.7,8.518937140590918,0.0007303743999999999
262.79,430.98,18654.0,5.3609e-05,2.717,5.0274,142.95,23.433,45.649,501.54,0.022156,42.909,0.060808,supercritical,O2,C7782447,oxygen,154.58,50.43,13.6,0.07352941176470588,1.7,8.546103509815586,0.0007290824
262.79,432.34,18687.0,5.3514e-05,2.7124,5.026,142.92,23.437,45.634,502.42,0.02179,42.991,0.060916,supercritical,O2,C7782447,oxygen,154.58,50.43,13.6,0.07352941176470588,1.7,8.57307158437438,0.0007277904
262.79,433.7,18719.0,5.342e-05,2.7078,5.0247,142.89,23.44,45.619,503.29,0.021426,43.073,0.061025,supercritical,O2,C7782447,oxygen,154.58,50.43,13.6,0.07352941176470588,1.7,8.600039658933175,0.000726512
262.79,435.07,18752.0,5.3327e-05,2.7033,5.0234,142.85,23.443,45.603,504.16,0.021065,43.156,0.061133,supercritical,O2,C7782447,oxygen,154.58,50.43,13.6,0.07352941176470588,1.7,8.627206028157843,0.0007252472
262.79,436.44,18785.0,5.3235e-05,2.6987,5.0221,142.82,23.447,45.588,505.03,0.020707,43.238,0.061241,supercritical,O2,C7782447,oxygen,154.58,50.43,13.6,0.07352941176470588,1.7,8.654372397382511,0.000723996
262.79,437.8,18817.0,5.3143e-05,2.6942,5.0208,142.79,23.45,45.573,505.9,0.020351,43.32,0.061349,supercritical,O2,C7782447,oxygen,154.58,50.43,13.6,0.07352941176470588,1.7,8.681340471941304,0.0007227448
262.79,439.17,18850.0,5.3052e-05,2.6897,5.0195,142.76,23.453,45.557,506.77,0.019998,43.402,0.061457,supercritical,O2,C7782447,oxygen,154.58,50.43,13.6,0.07352941176470588,1.7,8.708506841165972,0.0007215072
262.79,440.53,18882.0,5.2961e-05,2.6852,5.0183,142.72,23.457,45.542,507.64,0.019648,43.484,0.061565,supercritical,O2,C7782447,oxygen,154.58,50.43,13.6,0.07352941176470588,1.7,8.735474915724767,0.0007202696
262.79,441.89,18914.0,5.2871e-05,2.6807,5.0171,142.69,23.46,45.526,508.51,0.0193,43.566,0.061672,supercritical,O2,C7782447,oxygen,154.58,50.43,13.6,0.07352941176470588,1.7,8.762442990283562,0.0007190456
262.79,443.26,18946.0,5.2782e-05,2.6763,5.0159,142.66,23.463,45.511,509.38,0.018954,43.648,0.06178,supercritical,O2,C7782447,oxygen,154.58,50.43,13.6,0.07352941176470588,1.7,8.78960935950823,0.0007178352
262.79,444.62,18978.0,5.2694e-05,2.6719,5.0147,142.63,23.467,45.496,510.24,0.018611,43.729,0.061887,supercritical,O2,C7782447,oxygen,154.58,50.43,13.6,0.07352941176470588,1.7,8.816577434067023,0.0007166383999999999
262.79,445.99,19009.0,5.2606e-05,2.6674,5.0136,142.6,23.47,45.48,511.1,0.018271,43.811,0.061994,supercritical,O2,C7782447,oxygen,154.58,50.43,13.6,0.07352941176470588,1.7,8.84374380329169,0.0007154415999999999
262.79,447.36,19041.0,5.2519e-05,2.663,5.0125,142.56,23.473,45.465,511.97,0.017932,43.892,0.062101,supercritical,O2,C7782447,oxygen,154.58,50.43,13.6,0.07352941176470588,1.7,8.870910172516359,0.0007142584
262.79,448.72,19072.0,5.2432e-05,2.6586,5.0114,142.53,23.477,45.45,512.83,0.017597,43.973,0.062208,supercritical,O2,C7782447,oxygen,154.58,50.43,13.6,0.07352941176470588,1.7,8.897878247075154,0.0007130752
262.79,450.08,19104.0,5.2346e-05,2.6543,5.0103,142.5,23.48,45.434,513.69,0.017263,44.055,0.062315,supercritical,O2,C7782447,oxygen,154.58,50.43,13.6,0.07352941176470588,1.7,8.924846321633948,0.0007119056
262.79,451.45,19135.0,5.2261e-05,2.6499,5.0092,142.47,23.483,45.419,514.55,0.016932,44.136,0.062421,supercritical,O2,C7782447,oxygen,154.58,50.43,13.6,0.07352941176470588,1.7,8.952012690858616,0.0007107496
262.79,452.81,19166.0,5.2176e-05,2.6456,5.0082,142.44,23.486,45.404,515.41,0.016604,44.217,0.062528,supercritical,O2,C7782447,oxygen,154.58,50.43,13.6,0.07352941176470588,1.7,8.978980765417411,0.0007095936
262.79,454.18,19197.0,5.2092e-05,2.6413,5.0072,142.41,23.49,45.388,516.27,0.016277,44.298,0.062634,supercritical,O2,C7782447,oxygen,154.58,50.43,13.6,0.07352941176470588,1.7,9.00614713464208,0.0007084512
262.79,455.55,19228.0,5.2008e-05,2.637,5.0062,142.38,23.493,45.373,517.12,0.015953,44.379,0.06274,supercritical,O2,C7782447,oxygen,154.58,50.43,13.6,0.07352941176470588,1.7,9.033313503866747,0.0007073088
262.79,456.91,19259.0,5.1925e-05,2.6327,5.0052,142.35,23.496,45.358,517.98,0.015632,44.46,0.062846,supercritical,O2,C7782447,oxygen,154.58,50.43,13.6,0.07352941176470588,1.7,9.06028157842554,0.00070618
262.79,458.27,19289.0,5.1842e-05,2.6284,5.0042,142.32,23.5,45.342,518.83,0.015312,44.54,0.062952,supercritical,O2,C7782447,oxygen,154.58,50.43,13.6,0.07352941176470588,1.7,9.087249652984335,0.0007050512
262.79,459.64,19320.0,5.1761e-05,2.6242,5.0033,142.29,23.503,45.327,519.68,0.014995,44.621,0.063058,supercritical,O2,C7782447,oxygen,154.58,50.43,13.6,0.07352941176470588,1.7,9.114416022209003,0.0007039496
262.79,461.0,19350.0,5.1679e-05,2.62,5.0024,142.26,23.506,45.312,520.54,0.01468,44.702,0.063164,supercritical,O2,C7782447,oxygen,154.58,50.43,13.6,0.07352941176470588,1.7,9.141384096767798,0.0007028344
262.79,462.37,19380.0,5.1598e-05,2.6157,5.0015,142.23,23.509,45.297,521.39,0.014367,44.782,0.063269,supercritical,O2,C7782447,oxygen,154.58,50.43,13.6,0.07352941176470588,1.7,9.168550465992466,0.0007017328
262.79,463.74,19411.0,5.1518e-05,2.6115,5.0006,142.2,23.513,45.281,522.24,0.014057,44.863,0.063375,supercritical,O2,C7782447,oxygen,154.58,50.43,13.6,0.07352941176470588,1.7,9.195716835217134,0.0007006447999999999
262.79,465.1,19441.0,5.1439e-05,2.6073,4.9998,142.17,23.516,45.266,523.09,0.013748,44.943,0.06348,supercritical,O2,C7782447,oxygen,154.58,50.43,13.6,0.07352941176470588,1.7,9.222684909775927,0.0006995704
262.79,466.46,19471.0,5.1359e-05,2.6032,4.9989,142.14,23.519,45.251,523.93,0.013442,45.023,0.063585,supercritical,O2,C7782447,oxygen,154.58,50.43,13.6,0.07352941176470588,1.7,9.249652984334721,0.0006984824
262.79,467.83,19500.0,5.1281e-05,2.599,4.9981,142.11,23.522,45.236,524.78,0.013138,45.103,0.06369,supercritical,O2,C7782447,oxygen,154.58,50.43,13.6,0.07352941176470588,1.7,9.27681935355939,0.0006974215999999999
262.79,469.19,19530.0,5.1203e-05,2.5949,4.9973,142.08,23.526,45.221,525.63,0.012836,45.183,0.063795,supercritical,O2,C7782447,oxygen,154.58,50.43,13.6,0.07352941176470588,1.7,9.303787428118184,0.0006963608
262.79,470.56,19560.0,5.1125e-05,2.5908,4.9965,142.05,23.529,45.205,526.47,0.012535,45.263,0.0639,supercritical,O2,C7782447,oxygen,154.58,50.43,13.6,0.07352941176470588,1.7,9.330953797342852,0.0006953
262.79,471.93,19589.0,5.1048e-05,2.5867,4.9957,142.02,23.532,45.19,527.31,0.012238,45.343,0.064005,supercritical,O2,C7782447,oxygen,154.58,50.43,13.6,0.07352941176470588,1.7,9.35812016656752,0.0006942528
262.79,473.29,19619.0,5.0972e-05,2.5826,4.995,141.99,23.535,45.175,528.16,0.011942,45.423,0.06411,supercritical,O2,C7782447,oxygen,154.58,50.43,13.6,0.07352941176470588,1.7,9.385088241126315,0.0006932192
262.79,474.65,19648.0,5.0896e-05,2.5785,4.9943,141.96,23.538,45.16,529.0,0.011648,45.503,0.064214,supercritical,O2,C7782447,oxygen,154.58,50.43,13.6,0.07352941176470588,1.7,9.412056315685108,0.0006921856
262.79,476.02,19677.0,5.082e-05,2.5744,4.9936,141.93,23.542,45.145,529.84,0.011356,45.582,0.064318,supercritical,O2,C7782447,oxygen,154.58,50.43,13.6,0.07352941176470588,1.7,9.439222684909776,0.000691152
262.79,477.38,19706.0,5.0745e-05,2.5704,4.9929,141.9,23.545,45.13,530.68,0.011066,45.662,0.064423,supercritical,O2,C7782447,oxygen,154.58,50.43,13.6,0.07352941176470588,1.7,9.46619075946857,0.000690132
262.79,478.75,19735.0,5.0671e-05,2.5663,4.9922,141.87,23.548,45.115,531.52,0.010778,45.741,0.064527,supercritical,O2,C7782447,oxygen,154.58,50.43,13.6,0.07352941176470588,1.7,9.493357128693239,0.0006891256000000001
262.79,480.12,19764.0,5.0597e-05,2.5623,4.9915,141.84,23.551,45.1,532.35,0.010492,45.821,0.064631,supercritical,O2,C7782447,oxygen,154.58,50.43,13.6,0.07352941176470588,1.7,9.520523497917907,0.0006881191999999999
262.79,481.48,19793.0,5.0523e-05,2.5583,4.9909,141.81,23.554,45.085,533.19,0.010208,45.9,0.064735,supercritical,O2,C7782447,oxygen,154.58,50.43,13.6,0.07352941176470588,1.7,9.547491572476702,0.0006871128
262.79,482.85,19822.0,5.045e-05,2.5543,4.9903,141.79,23.558,45.07,534.02,0.009926,45.98,0.064839,supercritical,O2,C7782447,oxygen,154.58,50.43,13.6,0.07352941176470588,1.7,9.57465794170137,0.00068612
262.79,484.21,19850.0,5.0377e-05,2.5504,4.9897,141.76,23.561,45.055,534.86,0.0096459,46.059,0.064943,supercritical,O2,C7782447,oxygen,154.58,50.43,13.6,0.07352941176470588,1.7,9.601626016260163,0.0006851272
262.79,485.57,19879.0,5.0305e-05,2.5464,4.9891,141.73,23.564,45.04,535.69,0.0093676,46.138,0.065046,supercritical,O2,C7782447,oxygen,154.58,50.43,13.6,0.07352941176470588,1.7,9.628594090818957,0.000684148
262.79,486.94,19907.0,5.0234e-05,2.5425,4.9885,141.7,23.567,45.026,536.52,0.0090911,46.217,0.06515,supercritical,O2,C7782447,oxygen,154.58,50.43,13.6,0.07352941176470588,1.7,9.655760460043625,0.0006831824
262.79,488.31,19935.0,5.0162e-05,2.5385,4.988,141.67,23.57,45.011,537.35,0.0088166,46.296,0.065253,supercritical,O2,C7782447,oxygen,154.58,50.43,13.6,0.07352941176470588,1.7,9.682926829268293,0.0006822032
262.79,489.67,19963.0,5.0092e-05,2.5346,4.9874,141.64,23.574,44.996,538.18,0.0085438,46.375,0.065356,supercritical,O2,C7782447,oxygen,154.58,50.43,13.6,0.07352941176470588,1.7,9.709894903827088,0.0006812512
262.79,491.04,19992.0,5.0021e-05,2.5307,4.9869,141.62,23.577,44.981,539.01,0.0082729,46.454,0.06546,supercritical,O2,C7782447,oxygen,154.58,50.43,13.6,0.07352941176470588,1.7,9.737061273051756,0.0006802856
262.79,492.4,20019.0,4.9951e-05,2.5268,4.9864,141.59,23.58,44.966,539.84,0.0080038,46.532,0.065563,supercritical,O2,C7782447,oxygen,154.58,50.43,13.6,0.07352941176470588,1.7,9.764029347610549,0.0006793336
262.79,493.76,20047.0,4.9882e-05,2.523,4.986,141.56,23.583,44.952,540.66,0.0077365,46.611,0.065666,supercritical,O2,C7782447,oxygen,154.58,50.43,13.6,0.07352941176470588,1.7,9.790997422169344,0.0006783952
262.79,495.13,20075.0,4.9813e-05,2.5191,4.9855,141.53,23.586,44.937,541.49,0.007471,46.69,0.065769,supercritical,O2,C7782447,oxygen,154.58,50.43,13.6,0.07352941176470588,1.7,9.818163791394012,0.0006774568
262.79,496.5,20103.0,4.9744e-05,2.5153,4.985,141.51,23.589,44.922,542.31,0.0072072,46.768,0.065871,supercritical,O2,C7782447,oxygen,154.58,50.43,13.6,0.07352941176470588,1.7,9.84533016061868,0.0006765183999999999
262.79,497.86,20130.0,4.9676e-05,2.5114,4.9846,141.48,23.593,44.908,543.13,0.0069452,46.847,0.065974,supercritical,O2,C7782447,oxygen,154.58,50.43,13.6,0.07352941176470588,1.7,9.872298235177475,0.0006755935999999999
262.79,499.23,20158.0,4.9609e-05,2.5076,4.9842,141.45,23.596,44.893,543.95,0.0066849,46.925,0.066077,supercritical,O2,C7782447,oxygen,154.58,50.43,13.6,0.07352941176470588,1.7,9.899464604402143,0.0006746823999999999
262.79,500.59,20185.0,4.9541e-05,2.5038,4.9838,141.42,23.599,44.879,544.78,0.0064263,47.004,0.066179,supercritical,O2,C7782447,oxygen,154.58,50.43,13.6,0.07352941176470588,1.7,9.926432678960936,0.0006737576
262.79,501.95,20212.0,4.9474e-05,2.5,4.9834,141.4,23.602,44.864,545.59,0.0061694,47.082,0.066282,supercritical,O2,C7782447,oxygen,154.58,50.43,13.6,0.07352941176470588,1.7,9.95340075351973,0.0006728464
262.79,503.32,20240.0,4.9408e-05,2.4962,4.983,141.37,23.605,44.849,546.41,0.0059142,47.16,0.066384,supercritical,O2,C7782447,oxygen,154.58,50.43,13.6,0.07352941176470588,1.7,9.980567122744398,0.0006719488
262.79,504.69,20267.0,4.9342e-05,2.4925,4.9827,141.34,23.608,44.835,547.23,0.0056607,47.238,0.066486,supercritical,O2,C7782447,oxygen,154.58,50.43,13.6,0.07352941176470588,1.7,10.007733491969066,0.0006710512
262.79,506.05,20294.0,4.9276e-05,2.4887,4.9823,141.32,23.611,44.821,548.05,0.0054088,47.316,0.066588,supercritical,O2,C7782447,oxygen,154.58,50.43,13.6,0.07352941176470588,1.7,10.034701566527861,0.0006701536
262.79,507.42,20321.0,4.9211e-05,2.485,4.982,141.29,23.614,44.806,548.86,0.0051586,47.394,0.06669,supercritical,O2,C7782447,oxygen,154.58,50.43,13.6,0.07352941176470588,1.7,10.06186793575253,0.0006692696
262.79,508.78,20348.0,4.9146e-05,2.4813,4.9817,141.26,23.618,44.792,549.68,0.00491,47.472,0.066792,supercritical,O2,C7782447,oxygen,154.58,50.43,13.6,0.07352941176470588,1.7,10.088836010311322,0.0006683856
262.79,510.14,20374.0,4.9082e-05,2.4775,4.9814,141.23,23.621,44.777,550.49,0.004663,47.55,0.066894,supercritical,O2,C7782447,oxygen,154.58,50.43,13.6,0.07352941176470588,1.7,10.115804084870117,0.0006675152
262.79,511.51,20401.0,4.9017e-05,2.4738,4.9811,141.21,23.624,44.763,551.3,0.0044176,47.628,0.066996,supercritical,O2,C7782447,oxygen,154.58,50.43,13.6,0.07352941176470588,1.7,10.142970454094785,0.0006666312
262.79,512.88,20427.0,4.8954e-05,2.4702,4.9809,141.18,23.627,44.749,552.11,0.0041738,47.706,0.067098,supercritical,O2,C7782447,oxygen,154.58,50.43,13.6,0.07352941176470588,1.7,10.170136823319453,0.0006657744
262.79,514.24,20454.0,4.889e-05,2.4665,4.9806,141.16,23.63,44.735,552.92,0.0039316,47.783,0.067199,supercritical,O2,C7782447,oxygen,154.58,50.43,13.6,0.07352941176470588,1.7,10.197104897878248,0.000664904
262.79,515.61,20480.0,4.8827e-05,2.4628,4.9804,141.13,23.633,44.72,553.73,0.0036909,47.861,0.067301,supercritical,O2,C7782447,oxygen,154.58,50.43,13.6,0.07352941176470588,1.7,10.224271267102916,0.0006640471999999999
262.79,516.97,20507.0,4.8765e-05,2.4592,4.9802,141.1,23.636,44.706,554.54,0.0034518,47.939,0.067402,supercritical,O2,C7782447,oxygen,154.58,50.43,13.6,0.07352941176470588,1.7,10.25123934166171,0.0006632039999999999
262.79,518.34,20533.0,4.8703e-05,2.4555,4.98,141.08,23.639,44.692,555.34,0.0032142,48.016,0.067503,supercritical,O2,C7782447,oxygen,154.58,50.43,13.6,0.07352941176470588,1.7,10.278405710886378,0.0006623607999999999
262.79,519.7,20559.0,4.8641e-05,2.4519,4.9798,141.05,23.642,44.678,556.15,0.0029781,48.094,0.067604,supercritical,O2,C7782447,oxygen,154.58,50.43,13.6,0.07352941176470588,1.7,10.305373785445173,0.0006615175999999999