Temperature (K),Pressure (bar),Density (mol/m3),Volume (m3/mol),Internal Energy (kJ/mol),Enthalpy (kJ/mol),Entropy (J/mol*K),Cv (J/mol*K),Cp (J/mol*K),Sound Spd. (m/s),Joule-Thomson (K/bar),Viscosity (uPa*s),Therm. Cond. (W/m*K),Phase,substance,substance_id,substance_name,Tc,Pc,rhoc,Vmc,Tr,Pr,Vmr
486.69,895.83,17181.0,5.8203e-05,18.912,24.126,73.345,40.956,65.533,672.58,-0.0017311,72.281,0.0914,supercritical,CO2,C124389,carbon-dioxide,304.18,73.8,10.6,0.09433962264150944,1.6,12.138617886178864,0.0006169518
486.69,898.29,17201.0,5.8136e-05,18.904,24.126,73.316,40.96,65.52,673.65,-0.0019119,72.415,0.091528,supercritical,CO2,C124389,carbon-dioxide,304.18,73.8,10.6,0.09433962264150944,1.6,12.171951219512195,0.0006162416
486.69,900.75,17221.0,5.807e-05,18.896,24.126,73.288,40.965,65.507,674.71,-0.0020915,72.548,0.091656,supercritical,CO2,C124389,carbon-dioxide,304.18,73.8,10.6,0.09433962264150944,1.6,12.205284552845528,0.000615542
486.69,903.21,17240.0,5.8004e-05,18.888,24.127,73.259,40.969,65.494,675.77,-0.0022698,72.682,0.091783,supercritical,CO2,C124389,carbon-dioxide,304.18,73.8,10.6,0.09433962264150944,1.6,12.238617886178863,0.0006148424
486.69,905.67,17260.0,5.7939e-05,18.88,24.127,73.23,40.974,65.481,676.83,-0.0024469,72.815,0.091911,supercritical,CO2,C124389,carbon-dioxide,304.18,73.8,10.6,0.09433962264150944,1.6,12.271951219512195,0.0006141534
486.69,908.12,17279.0,5.7873e-05,18.872,24.128,73.202,40.978,65.468,677.88,-0.0026228,72.948,0.092038,supercritical,CO2,C124389,carbon-dioxide,304.18,73.8,10.6,0.09433962264150944,1.6,12.305149051490515,0.0006134538
486.69,910.58,17299.0,5.7808e-05,18.864,24.128,73.174,40.983,65.455,678.94,-0.0027975,73.081,0.092165,supercritical,CO2,C124389,carbon-dioxide,304.18,73.8,10.6,0.09433962264150944,1.6,12.33848238482385,0.0006127648
486.69,913.04,17318.0,5.7744e-05,18.856,24.128,73.146,40.988,65.442,679.99,-0.0029711,73.214,0.092292,supercritical,CO2,C124389,carbon-dioxide,304.18,73.8,10.6,0.09433962264150944,1.6,12.371815718157182,0.0006120864
486.69,915.5,17337.0,5.768e-05,18.848,24.129,73.117,40.992,65.429,681.04,-0.0031434,73.346,0.092419,supercritical,CO2,C124389,carbon-dioxide,304.18,73.8,10.6,0.09433962264150944,1.6,12.405149051490515,0.0006114079999999999
486.69,917.96,17356.0,5.7616e-05,18.841,24.129,73.089,40.997,65.416,682.1,-0.0033146,73.479,0.092545,supercritical,CO2,C124389,carbon-dioxide,304.18,73.8,10.6,0.09433962264150944,1.6,12.43848238482385,0.0006107296
486.69,920.42,17375.0,5.7553e-05,18.833,24.13,73.061,41.001,65.403,683.14,-0.0034846,73.611,0.092671,supercritical,CO2,C124389,carbon-dioxide,304.18,73.8,10.6,0.09433962264150944,1.6,12.471815718157181,0.0006100618
486.69,922.87,17394.0,5.749e-05,18.825,24.131,73.033,41.006,65.391,684.19,-0.0036535,73.743,0.092798,supercritical,CO2,C124389,carbon-dioxide,304.18,73.8,10.6,0.09433962264150944,1.6,12.505013550135502,0.000609394
486.69,925.33,17413.0,5.7427e-05,18.817,24.131,73.006,41.011,65.378,685.24,-0.0038213,73.875,0.092924,supercritical,CO2,C124389,carbon-dioxide,304.18,73.8,10.6,0.09433962264150944,1.6,12.538346883468837,0.0006087261999999999
486.69,927.79,17432.0,5.7364e-05,18.81,24.132,72.978,41.015,65.365,686.28,-0.0039879,74.007,0.093049,supercritical,CO2,C124389,carbon-dioxide,304.18,73.8,10.6,0.09433962264150944,1.6,12.571680216802168,0.0006080584
486.69,930.25,17451.0,5.7302e-05,18.802,24.132,72.95,41.02,65.353,687.32,-0.0041534,74.139,0.093175,supercritical,CO2,C124389,carbon-dioxide,304.18,73.8,10.6,0.09433962264150944,1.6,12.605013550135501,0.0006074012
486.69,932.71,17470.0,5.7241e-05,18.794,24.133,72.923,41.024,65.34,688.36,-0.0043178,74.27,0.093301,supercritical,CO2,C124389,carbon-dioxide,304.18,73.8,10.6,0.09433962264150944,1.6,12.638346883468836,0.0006067546
486.69,935.17,17489.0,5.7179e-05,18.787,24.134,72.895,41.029,65.328,689.4,-0.0044811,74.401,0.093426,supercritical,CO2,C124389,carbon-dioxide,304.18,73.8,10.6,0.09433962264150944,1.6,12.671680216802168,0.0006060974
486.69,937.62,17507.0,5.7118e-05,18.779,24.135,72.868,41.033,65.315,690.44,-0.0046433,74.533,0.093551,supercritical,CO2,C124389,carbon-dioxide,304.18,73.8,10.6,0.09433962264150944,1.6,12.704878048780488,0.0006054508
486.69,940.08,17526.0,5.7058e-05,18.771,24.135,72.841,41.038,65.303,691.48,-0.0048044,74.664,0.093676,supercritical,CO2,C124389,carbon-dioxide,304.18,73.8,10.6,0.09433962264150944,1.6,12.738211382113823,0.0006048148
486.69,942.54,17545.0,5.6997e-05,18.764,24.136,72.814,41.043,65.291,692.51,-0.0049644,74.794,0.093801,supercritical,CO2,C124389,carbon-dioxide,304.18,73.8,10.6,0.09433962264150944,1.6,12.771544715447154,0.0006041681999999999
486.69,945.0,17563.0,5.6937e-05,18.756,24.137,72.786,41.047,65.278,693.54,-0.0051234,74.925,0.093926,supercritical,CO2,C124389,carbon-dioxide,304.18,73.8,10.6,0.09433962264150944,1.6,12.804878048780488,0.0006035322
486.69,947.46,17582.0,5.6878e-05,18.749,24.138,72.759,41.052,65.266,694.57,-0.0052814,75.056,0.094051,supercritical,CO2,C124389,carbon-dioxide,304.18,73.8,10.6,0.09433962264150944,1.6,12.838211382113823,0.0006029068
486.69,949.92,17600.0,5.6818e-05,18.741,24.139,72.732,41.056,65.254,695.6,-0.0054383,75.186,0.094175,supercritical,CO2,C124389,carbon-dioxide,304.18,73.8,10.6,0.09433962264150944,1.6,12.871544715447154,0.0006022708
486.69,952.37,17618.0,5.6759e-05,18.734,24.139,72.706,41.061,65.242,696.63,-0.0055941,75.317,0.0943,supercritical,CO2,C124389,carbon-dioxide,304.18,73.8,10.6,0.09433962264150944,1.6,12.904742547425474,0.0006016454
486.69,954.83,17637.0,5.67e-05,18.726,24.14,72.679,41.065,65.23,697.65,-0.0057489,75.447,0.094424,supercritical,CO2,C124389,carbon-dioxide,304.18,73.8,10.6,0.09433962264150944,1.6,12.93807588075881,0.00060102
486.69,957.29,17655.0,5.6642e-05,18.719,24.141,72.652,41.07,65.218,698.68,-0.0059028,75.577,0.094548,supercritical,CO2,C124389,carbon-dioxide,304.18,73.8,10.6,0.09433962264150944,1.6,12.97140921409214,0.0006004051999999999
486.69,959.75,17673.0,5.6584e-05,18.712,24.142,72.625,41.075,65.206,699.7,-0.0060556,75.707,0.094672,supercritical,CO2,C124389,carbon-dioxide,304.18,73.8,10.6,0.09433962264150944,1.6,13.004742547425474,0.0005997903999999999
486.69,962.21,17691.0,5.6526e-05,18.704,24.143,72.599,41.079,65.194,700.72,-0.0062074,75.836,0.094795,supercritical,CO2,C124389,carbon-dioxide,304.18,73.8,10.6,0.09433962264150944,1.6,13.038075880758809,0.0005991756
486.69,964.67,17709.0,5.6468e-05,18.697,24.144,72.572,41.084,65.182,701.74,-0.0063582,75.966,0.094919,supercritical,CO2,C124389,carbon-dioxide,304.18,73.8,10.6,0.09433962264150944,1.6,13.07140921409214,0.0005985608
486.69,967.12,17727.0,5.6411e-05,18.69,24.145,72.546,41.088,65.17,702.76,-0.006508,76.095,0.095042,supercritical,CO2,C124389,carbon-dioxide,304.18,73.8,10.6,0.09433962264150944,1.6,13.104607046070461,0.0005979566
486.69,969.58,17745.0,5.6354e-05,18.682,24.146,72.52,41.093,65.159,703.78,-0.0066569,76.224,0.095166,supercritical,CO2,C124389,carbon-dioxide,304.18,73.8,10.6,0.09433962264150944,1.6,13.137940379403796,0.0005973524
486.69,972.04,17763.0,5.6298e-05,18.675,24.147,72.494,41.098,65.147,704.79,-0.0068047,76.354,0.095289,supercritical,CO2,C124389,carbon-dioxide,304.18,73.8,10.6,0.09433962264150944,1.6,13.171273712737127,0.0005967588
486.69,974.5,17781.0,5.6241e-05,18.668,24.149,72.467,41.102,65.135,705.8,-0.0069517,76.483,0.095412,supercritical,CO2,C124389,carbon-dioxide,304.18,73.8,10.6,0.09433962264150944,1.6,13.20460704607046,0.0005961546
486.69,976.96,17798.0,5.6185e-05,18.661,24.15,72.441,41.107,65.124,706.82,-0.0070976,76.611,0.095535,supercritical,CO2,C124389,carbon-dioxide,304.18,73.8,10.6,0.09433962264150944,1.6,13.237940379403796,0.000595561
486.69,979.42,17816.0,5.6129e-05,18.653,24.151,72.415,41.111,65.112,707.83,-0.0072427,76.74,0.095657,supercritical,CO2,C124389,carbon-dioxide,304.18,73.8,10.6,0.09433962264150944,1.6,13.271273712737127,0.0005949673999999999
486.69,981.87,17834.0,5.6074e-05,18.646,24.152,72.389,41.116,65.101,708.83,-0.0073868,76.869,0.09578,supercritical,CO2,C124389,carbon-dioxide,304.18,73.8,10.6,0.09433962264150944,1.6,13.304471544715447,0.0005943843999999999
486.69,984.33,17851.0,5.6019e-05,18.639,24.153,72.364,41.121,65.089,709.84,-0.0075299,76.997,0.095902,supercritical,CO2,C124389,carbon-dioxide,304.18,73.8,10.6,0.09433962264150944,1.6,13.337804878048782,0.0005938014
486.69,986.79,17869.0,5.5964e-05,18.632,24.154,72.338,41.125,65.078,710.85,-0.0076722,77.125,0.096025,supercritical,CO2,C124389,carbon-dioxide,304.18,73.8,10.6,0.09433962264150944,1.6,13.371138211382114,0.0005932184
486.69,989.25,17886.0,5.5909e-05,18.625,24.156,72.312,41.13,65.066,711.85,-0.0078135,77.254,0.096147,supercritical,CO2,C124389,carbon-dioxide,304.18,73.8,10.6,0.09433962264150944,1.6,13.404471544715447,0.0005926354
486.69,991.71,17904.0,5.5855e-05,18.618,24.157,72.286,41.134,65.055,712.85,-0.0079539,77.382,0.096269,supercritical,CO2,C124389,carbon-dioxide,304.18,73.8,10.6,0.09433962264150944,1.6,13.437804878048782,0.000592063
486.69,994.17,17921.0,5.5801e-05,18.611,24.158,72.261,41.139,65.044,713.85,-0.0080935,77.51,0.096391,supercritical,CO2,C124389,carbon-dioxide,304.18,73.8,10.6,0.09433962264150944,1.6,13.471138211382113,0.0005914906
486.69,996.62,17938.0,5.5747e-05,18.604,24.159,72.235,41.143,65.033,714.85,-0.0082321,77.637,0.096513,supercritical,CO2,C124389,carbon-dioxide,304.18,73.8,10.6,0.09433962264150944,1.6,13.504336043360434,0.0005909181999999999
486.69,999.08,17955.0,5.5693e-05,18.597,24.161,72.21,41.148,65.022,715.85,-0.0083699,77.765,0.096634,supercritical,CO2,C124389,carbon-dioxide,304.18,73.8,10.6,0.09433962264150944,1.6,13.537669376693769,0.0005903457999999999
486.69,1001.5,17973.0,5.564e-05,18.59,24.162,72.185,41.153,65.01,716.84,-0.0085068,77.892,0.096756,supercritical,CO2,C124389,carbon-dioxide,304.18,73.8,10.6,0.09433962264150944,1.6,13.570460704607047,0.000589784
486.69,1004.0,17990.0,5.5587e-05,18.583,24.164,72.159,41.157,64.999,717.84,-0.0086428,78.02,0.096877,supercritical,CO2,C124389,carbon-dioxide,304.18,73.8,10.6,0.09433962264150944,1.6,13.604336043360433,0.0005892222
486.69,1006.5,18007.0,5.5534e-05,18.576,24.165,72.134,41.162,64.988,718.83,-0.0087779,78.147,0.096998,supercritical,CO2,C124389,carbon-dioxide,304.18,73.8,10.6,0.09433962264150944,1.6,13.638211382113822,0.0005886604
486.69,1008.9,18024.0,5.5482e-05,18.569,24.166,72.109,41.166,64.978,719.82,-0.0089122,78.274,0.097119,supercritical,CO2,C124389,carbon-dioxide,304.18,73.8,10.6,0.09433962264150944,1.6,13.670731707317074,0.0005881091999999999
486.69,1011.4,18041.0,5.5429e-05,18.562,24.168,72.084,41.171,64.967,720.81,-0.0090457,78.401,0.09724,supercritical,CO2,C124389,carbon-dioxide,304.18,73.8,10.6,0.09433962264150944,1.6,13.70460704607046,0.0005875473999999999
486.69,1013.8,18058.0,5.5377e-05,18.555,24.169,72.059,41.176,64.956,721.8,-0.0091783,78.528,0.097361,supercritical,CO2,C124389,carbon-dioxide,304.18,73.8,10.6,0.09433962264150944,1.6,13.737127371273713,0.0005869962
486.69,1016.3,18075.0,5.5326e-05,18.548,24.171,72.034,41.18,64.945,722.79,-0.0093101,78.654,0.097482,supercritical,CO2,C124389,carbon-dioxide,304.18,73.8,10.6,0.09433962264150944,1.6,13.7710027100271,0.0005864555999999999
486.69,1018.7,18092.0,5.5274e-05,18.541,24.172,72.009,41.185,64.934,723.77,-0.009441,78.781,0.097603,supercritical,CO2,C124389,carbon-dioxide,304.18,73.8,10.6,0.09433962264150944,1.6,13.803523035230354,0.0005859044
486.69,1021.2,18108.0,5.5223e-05,18.534,24.174,71.984,41.189,64.924,724.75,-0.0095712,78.907,0.097723,supercritical,CO2,C124389,carbon-dioxide,304.18,73.8,10.6,0.09433962264150944,1.6,13.83739837398374,0.0005853638
486.69,1023.7,18125.0,5.5172e-05,18.527,24.175,71.96,41.194,64.913,725.73,-0.0097005,79.034,0.097843,supercritical,CO2,C124389,carbon-dioxide,304.18,73.8,10.6,0.09433962264150944,1.6,13.871273712737128,0.0005848231999999999
486.69,1026.1,18142.0,5.5121e-05,18.521,24.177,71.935,41.199,64.902,726.72,-0.009829,79.16,0.097964,supercritical,CO2,C124389,carbon-dioxide,304.18,73.8,10.6,0.09433962264150944,1.6,13.90379403794038,0.0005842826
486.69,1028.6,18158.0,5.5071e-05,18.514,24.178,71.91,41.203,64.892,727.69,-0.0099568,79.286,0.098084,supercritical,CO2,C124389,carbon-dioxide,304.18,73.8,10.6,0.09433962264150944,1.6,13.937669376693766,0.0005837526
486.69,1031.0,18175.0,5.502e-05,18.507,24.18,71.886,41.208,64.881,728.67,-0.010084,79.412,0.098204,supercritical,CO2,C124389,carbon-dioxide,304.18,73.8,10.6,0.09433962264150944,1.6,13.97018970189702,0.0005832119999999999
486.69,1033.5,18192.0,5.497e-05,18.5,24.182,71.861,41.212,64.871,729.65,-0.01021,79.538,0.098324,supercritical,CO2,C124389,carbon-dioxide,304.18,73.8,10.6,0.09433962264150944,1.6,14.004065040650406,0.000582682
486.69,1036.0,18208.0,5.4921e-05,18.494,24.183,71.837,41.217,64.86,730.62,-0.010335,79.663,0.098443,supercritical,CO2,C124389,carbon-dioxide,304.18,73.8,10.6,0.09433962264150944,1.6,14.037940379403794,0.0005821626
486.69,1038.4,18225.0,5.4871e-05,18.487,24.185,71.813,41.222,64.85,731.59,-0.01046,79.789,0.098563,supercritical,CO2,C124389,carbon-dioxide,304.18,73.8,10.6,0.09433962264150944,1.6,14.070460704607047,0.0005816325999999999
486.69,1040.9,18241.0,5.4822e-05,18.48,24.187,71.788,41.226,64.84,732.56,-0.010584,79.914,0.098682,supercritical,CO2,C124389,carbon-dioxide,304.18,73.8,10.6,0.09433962264150944,1.6,14.104336043360435,0.0005811131999999999
486.69,1043.3,18257.0,5.4773e-05,18.474,24.188,71.764,41.231,64.83,733.53,-0.010707,80.039,0.098802,supercritical,CO2,C124389,carbon-dioxide,304.18,73.8,10.6,0.09433962264150944,1.6,14.136856368563686,0.0005805938
486.69,1045.8,18274.0,5.4724e-05,18.467,24.19,71.74,41.235,64.819,734.5,-0.010829,80.165,0.098921,supercritical,CO2,C124389,carbon-dioxide,304.18,73.8,10.6,0.09433962264150944,1.6,14.170731707317072,0.0005800744
486.69,1048.2,18290.0,5.4675e-05,18.46,24.192,71.716,41.24,64.809,735.47,-0.010951,80.29,0.09904,supercritical,CO2,C124389,carbon-dioxide,304.18,73.8,10.6,0.09433962264150944,1.6,14.203252032520327,0.0005795549999999999
486.69,1050.7,18306.0,5.4627e-05,18.454,24.193,71.692,41.245,64.799,736.43,-0.011071,80.415,0.099159,supercritical,CO2,C124389,carbon-dioxide,304.18,73.8,10.6,0.09433962264150944,1.6,14.237127371273713,0.0005790461999999999
486.69,1053.2,18322.0,5.4579e-05,18.447,24.195,71.668,41.249,64.789,737.4,-0.011191,80.539,0.099278,supercritical,CO2,C124389,carbon-dioxide,304.18,73.8,10.6,0.09433962264150944,1.6,14.271002710027101,0.0005785374
486.69,1055.6,18338.0,5.4531e-05,18.441,24.197,71.644,41.254,64.779,738.36,-0.011311,80.664,0.099397,supercritical,CO2,C124389,carbon-dioxide,304.18,73.8,10.6,0.09433962264150944,1.6,14.303523035230352,0.0005780286
486.69,1058.1,18354.0,5.4483e-05,18.434,24.199,71.62,41.258,64.769,739.32,-0.011429,80.789,0.099516,supercritical,CO2,C124389,carbon-dioxide,304.18,73.8,10.6,0.09433962264150944,1.6,14.337398373983739,0.0005775197999999999
486.69,1060.5,18370.0,5.4435e-05,18.428,24.201,71.597,41.263,64.759,740.28,-0.011547,80.913,0.099634,supercritical,CO2,C124389,carbon-dioxide,304.18,73.8,10.6,0.09433962264150944,1.6,14.369918699186993,0.000577011
486.69,1063.0,18386.0,5.4388e-05,18.421,24.203,71.573,41.268,64.749,741.24,-0.011664,81.037,0.099753,supercritical,CO2,C124389,carbon-dioxide,304.18,73.8,10.6,0.09433962264150944,1.6,14.40379403794038,0.0005765128
486.69,1065.5,18402.0,5.4341e-05,18.415,24.204,71.549,41.272,64.739,742.19,-0.011781,81.162,0.099871,supercritical,CO2,C124389,carbon-dioxide,304.18,73.8,10.6,0.09433962264150944,1.6,14.437669376693767,0.0005760146
486.69,1067.9,18418.0,5.4294e-05,18.408,24.206,71.526,41.277,64.73,743.15,-0.011897,81.286,0.099989,supercritical,CO2,C124389,carbon-dioxide,304.18,73.8,10.6,0.09433962264150944,1.6,14.47018970189702,0.0005755163999999999
486.69,1070.4,18434.0,5.4248e-05,18.402,24.208,71.502,41.281,64.72,744.1,-0.012012,81.41,0.10011,supercritical,CO2,C124389,carbon-dioxide,304.18,73.8,10.6,0.09433962264150944,1.6,14.504065040650408,0.0005750287999999999
486.69,1072.8,18450.0,5.4201e-05,18.395,24.21,71.479,41.286,64.71,745.05,-0.012126,81.534,0.10023,supercritical,CO2,C124389,carbon-dioxide,304.18,73.8,10.6,0.09433962264150944,1.6,14.536585365853659,0.0005745306
486.69,1075.3,18466.0,5.4155e-05,18.389,24.212,71.455,41.291,64.701,746.0,-0.01224,81.657,0.10034,supercritical,CO2,C124389,carbon-dioxide,304.18,73.8,10.6,0.09433962264150944,1.6,14.570460704607045,0.000574043
486.69,1077.7,18481.0,5.4109e-05,18.382,24.214,71.432,41.295,64.691,746.95,-0.012353,81.781,0.10046,supercritical,CO2,C124389,carbon-dioxide,304.18,73.8,10.6,0.09433962264150944,1.6,14.6029810298103,0.0005735553999999999
486.69,1080.2,18497.0,5.4063e-05,18.376,24.216,71.409,41.3,64.681,747.9,-0.012465,81.904,0.10058,supercritical,CO2,C124389,carbon-dioxide,304.18,73.8,10.6,0.09433962264150944,1.6,14.636856368563686,0.0005730678
486.69,1082.7,18513.0,5.4017e-05,18.37,24.218,71.386,41.304,64.672,748.85,-0.012577,82.028,0.1007,supercritical,CO2,C124389,carbon-dioxide,304.18,73.8,10.6,0.09433962264150944,1.6,14.670731707317074,0.0005725802
486.69,1085.1,18528.0,5.3972e-05,18.363,24.22,71.362,41.309,64.662,749.79,-0.012688,82.151,0.10081,supercritical,CO2,C124389,carbon-dioxide,304.18,73.8,10.6,0.09433962264150944,1.6,14.703252032520325,0.0005721032
486.69,1087.6,18544.0,5.3927e-05,18.357,24.222,71.339,41.314,64.653,750.73,-0.012798,82.274,0.10093,supercritical,CO2,C124389,carbon-dioxide,304.18,73.8,10.6,0.09433962264150944,1.6,14.737127371273711,0.0005716262
486.69,1090.0,18559.0,5.3882e-05,18.351,24.224,71.316,41.318,64.644,751.67,-0.012908,82.397,0.10105,supercritical,CO2,C124389,carbon-dioxide,304.18,73.8,10.6,0.09433962264150944,1.6,14.769647696476966,0.0005711491999999999
486.69,1092.5,18575.0,5.3837e-05,18.344,24.226,71.293,41.323,64.634,752.61,-0.013017,82.52,0.10117,supercritical,CO2,C124389,carbon-dioxide,304.18,73.8,10.6,0.09433962264150944,1.6,14.803523035230352,0.0005706722
486.69,1095.0,18590.0,5.3792e-05,18.338,24.228,71.27,41.327,64.625,753.55,-0.013126,82.643,0.10128,supercritical,CO2,C124389,carbon-dioxide,304.18,73.8,10.6,0.09433962264150944,1.6,14.83739837398374,0.0005701952
486.69,1097.4,18605.0,5.3748e-05,18.332,24.23,71.248,41.332,64.616,754.49,-0.013233,82.766,0.1014,supercritical,CO2,C124389,carbon-dioxide,304.18,73.8,10.6,0.09433962264150944,1.6,14.869918699186993,0.0005697288
486.69,1099.9,18621.0,5.3704e-05,18.326,24.232,71.225,41.337,64.607,755.43,-0.01334,82.888,0.10152,supercritical,CO2,C124389,carbon-dioxide,304.18,73.8,10.6,0.09433962264150944,1.6,14.903794037940381,0.0005692624
486.69,1102.3,18636.0,5.366e-05,18.319,24.235,71.202,41.341,64.597,756.36,-0.013447,83.011,0.10163,supercritical,CO2,C124389,carbon-dioxide,304.18,73.8,10.6,0.09433962264150944,1.6,14.936314363143632,0.0005687959999999999
486.69,1104.8,18651.0,5.3616e-05,18.313,24.237,71.179,41.346,64.588,757.29,-0.013553,83.133,0.10175,supercritical,CO2,C124389,carbon-dioxide,304.18,73.8,10.6,0.09433962264150944,1.6,14.970189701897018,0.0005683296
486.69,1107.2,18666.0,5.3572e-05,18.307,24.239,71.157,41.35,64.579,758.23,-0.013658,83.255,0.10187,supercritical,CO2,C124389,carbon-dioxide,304.18,73.8,10.6,0.09433962264150944,1.6,15.002710027100273,0.0005678632
486.69,1109.7,18682.0,5.3529e-05,18.301,24.241,71.134,41.355,64.57,759.16,-0.013763,83.378,0.10198,supercritical,CO2,C124389,carbon-dioxide,304.18,73.8,10.6,0.09433962264150944,1.6,15.036585365853659,0.0005674073999999999
486.69,1112.2,18697.0,5.3486e-05,18.295,24.243,71.112,41.36,64.561,760.09,-0.013867,83.5,0.1021,supercritical,CO2,C124389,carbon-dioxide,304.18,73.8,10.6,0.09433962264150944,1.6,15.070460704607047,0.0005669516
486.69,1114.6,18712.0,5.3442e-05,18.289,24.245,71.089,41.364,64.552,761.01,-0.01397,83.622,0.10222,supercritical,CO2,C124389,carbon-dioxide,304.18,73.8,10.6,0.09433962264150944,1.6,15.102981029810298,0.0005664852
486.69,1117.1,18727.0,5.34e-05,18.282,24.248,71.067,41.369,64.543,761.94,-0.014073,83.743,0.10233,supercritical,CO2,C124389,carbon-dioxide,304.18,73.8,10.6,0.09433962264150944,1.6,15.136856368563684,0.00056604