Temperature (K),Pressure (bar),Density (mol/m3),Volume (m3/mol),Internal Energy (kJ/mol),Enthalpy (kJ/mol),Entropy (J/mol*K),Cv (J/mol*K),Cp (J/mol*K),Sound Spd. (m/s),Joule-Thomson (K/bar),Viscosity (uPa*s),Therm. Cond. (W/m*K),Phase,substance,substance_id,substance_name,Tc,Pc,rhoc,Vmc,Tr,Pr,Vmr
196.12,744.28,28712.0,3.4829e-05,-1.7783,0.81393,78.88,17.097,35.54,766.1,-0.042505,103.54,0.087838,supercritical,Ar,C7440371,argon,150.86,48.9805,13.41,0.07457121551081282,1.3,15.195434917977563,0.00046705689000000006
196.12,745.91,28726.0,3.4812e-05,-1.7802,0.8164,78.864,17.102,35.528,766.79,-0.042586,103.67,0.087935,supercritical,Ar,C7440371,argon,150.86,48.9805,13.41,0.07457121551081282,1.3,15.228713467604454,0.00046682892000000003
196.12,747.54,28740.0,3.4794e-05,-1.7821,0.81887,78.848,17.106,35.517,767.47,-0.042667,103.8,0.088032,supercritical,Ar,C7440371,argon,150.86,48.9805,13.41,0.07457121551081282,1.3,15.261992017231346,0.00046658754000000003
196.12,749.17,28755.0,3.4777e-05,-1.784,0.82134,78.831,17.11,35.506,768.16,-0.042747,103.93,0.088128,supercritical,Ar,C7440371,argon,150.86,48.9805,13.41,0.07457121551081282,1.3,15.295270566858239,0.00046635957000000007
196.12,750.8,28769.0,3.476e-05,-1.7859,0.82381,78.815,17.114,35.495,768.84,-0.042826,104.06,0.088225,supercritical,Ar,C7440371,argon,150.86,48.9805,13.41,0.07457121551081282,1.3,15.328549116485132,0.00046613160000000004
196.12,752.43,28783.0,3.4742e-05,-1.7878,0.82629,78.799,17.118,35.484,769.52,-0.042906,104.2,0.088321,supercritical,Ar,C7440371,argon,150.86,48.9805,13.41,0.07457121551081282,1.3,15.361827666112024,0.00046589022000000004
196.12,754.06,28798.0,3.4725e-05,-1.7897,0.82878,78.783,17.123,35.473,770.2,-0.042984,104.33,0.088418,supercritical,Ar,C7440371,argon,150.86,48.9805,13.41,0.07457121551081282,1.3,15.395106215738915,0.00046566225
196.12,755.69,28812.0,3.4708e-05,-1.7916,0.83126,78.767,17.127,35.462,770.88,-0.043063,104.46,0.088514,supercritical,Ar,C7440371,argon,150.86,48.9805,13.41,0.07457121551081282,1.3,15.428384765365811,0.00046543428000000005
196.12,757.32,28826.0,3.4691e-05,-1.7934,0.83375,78.75,17.131,35.451,771.56,-0.043141,104.59,0.08861,supercritical,Ar,C7440371,argon,150.86,48.9805,13.41,0.07457121551081282,1.3,15.461663314992702,0.00046520631
196.12,758.95,28840.0,3.4674e-05,-1.7953,0.83625,78.734,17.135,35.44,772.24,-0.043219,104.72,0.088706,supercritical,Ar,C7440371,argon,150.86,48.9805,13.41,0.07457121551081282,1.3,15.494941864619594,0.00046497834000000006
196.12,760.58,28854.0,3.4657e-05,-1.7972,0.83875,78.718,17.139,35.429,772.91,-0.043296,104.85,0.088802,supercritical,Ar,C7440371,argon,150.86,48.9805,13.41,0.07457121551081282,1.3,15.528220414246487,0.00046475037
196.12,762.21,28869.0,3.464e-05,-1.799,0.84125,78.702,17.144,35.418,773.59,-0.043373,104.99,0.088898,supercritical,Ar,C7440371,argon,150.86,48.9805,13.41,0.07457121551081282,1.3,15.56149896387338,0.00046452240000000006
196.12,763.84,28883.0,3.4623e-05,-1.8009,0.84376,78.686,17.148,35.407,774.26,-0.043449,105.12,0.088994,supercritical,Ar,C7440371,argon,150.86,48.9805,13.41,0.07457121551081282,1.3,15.594777513500272,0.00046429443
196.12,765.47,28897.0,3.4606e-05,-1.8027,0.84627,78.67,17.152,35.397,774.94,-0.043525,105.25,0.089089,supercritical,Ar,C7440371,argon,150.86,48.9805,13.41,0.07457121551081282,1.3,15.628056063127163,0.00046406646000000007
196.12,767.1,28911.0,3.4589e-05,-1.8046,0.84878,78.654,17.156,35.386,775.61,-0.043601,105.38,0.089185,supercritical,Ar,C7440371,argon,150.86,48.9805,13.41,0.07457121551081282,1.3,15.661334612754056,0.00046383849
196.12,768.73,28925.0,3.4573e-05,-1.8064,0.85129,78.638,17.16,35.376,776.28,-0.043676,105.51,0.08928,supercritical,Ar,C7440371,argon,150.86,48.9805,13.41,0.07457121551081282,1.3,15.694613162380948,0.00046362393000000005
196.12,770.36,28939.0,3.4556e-05,-1.8082,0.85382,78.622,17.165,35.365,776.95,-0.043751,105.64,0.089375,supercritical,Ar,C7440371,argon,150.86,48.9805,13.41,0.07457121551081282,1.3,15.72789171200784,0.00046339596000000003
196.12,771.99,28952.0,3.4539e-05,-1.8101,0.85634,78.607,17.169,35.355,777.61,-0.043825,105.77,0.089471,supercritical,Ar,C7440371,argon,150.86,48.9805,13.41,0.07457121551081282,1.3,15.761170261634733,0.00046316799000000006
196.12,773.62,28966.0,3.4523e-05,-1.8119,0.85887,78.591,17.173,35.344,778.28,-0.043899,105.9,0.089566,supercritical,Ar,C7440371,argon,150.86,48.9805,13.41,0.07457121551081282,1.3,15.794448811261624,0.00046295343000000007
196.12,775.25,28980.0,3.4506e-05,-1.8137,0.8614,78.575,17.177,35.334,778.94,-0.043973,106.03,0.089661,supercritical,Ar,C7440371,argon,150.86,48.9805,13.41,0.07457121551081282,1.3,15.827727360888517,0.00046272546000000004
196.12,776.88,28994.0,3.449e-05,-1.8155,0.86393,78.559,17.181,35.323,779.61,-0.044046,106.16,0.089756,supercritical,Ar,C7440371,argon,150.86,48.9805,13.41,0.07457121551081282,1.3,15.86100591051541,0.0004625109
196.12,778.51,29008.0,3.4474e-05,-1.8173,0.86647,78.544,17.185,35.313,780.27,-0.044119,106.29,0.089851,supercritical,Ar,C7440371,argon,150.86,48.9805,13.41,0.07457121551081282,1.3,15.894284460142302,0.00046229634000000006
196.12,780.14,29022.0,3.4457e-05,-1.8191,0.86901,78.528,17.19,35.303,780.93,-0.044192,106.42,0.089945,supercritical,Ar,C7440371,argon,150.86,48.9805,13.41,0.07457121551081282,1.3,15.927563009769194,0.00046206837000000003
196.12,781.77,29035.0,3.4441e-05,-1.8209,0.87156,78.512,17.194,35.293,781.6,-0.044264,106.55,0.09004,supercritical,Ar,C7440371,argon,150.86,48.9805,13.41,0.07457121551081282,1.3,15.960841559396085,0.00046185381000000004
196.12,783.4,29049.0,3.4425e-05,-1.8227,0.8741,78.497,17.198,35.283,782.26,-0.044336,106.68,0.090134,supercritical,Ar,C7440371,argon,150.86,48.9805,13.41,0.07457121551081282,1.3,15.994120109022978,0.0004616392500000001
196.12,785.03,29063.0,3.4408e-05,-1.8245,0.87665,78.481,17.202,35.273,782.91,-0.044408,106.81,0.090229,supercritical,Ar,C7440371,argon,150.86,48.9805,13.41,0.07457121551081282,1.3,16.027398658649872,0.00046141128
196.12,786.66,29076.0,3.4392e-05,-1.8263,0.87921,78.465,17.206,35.263,783.57,-0.044479,106.94,0.090323,supercritical,Ar,C7440371,argon,150.86,48.9805,13.41,0.07457121551081282,1.3,16.06067720827676,0.00046119672000000003
196.12,788.29,29090.0,3.4376e-05,-1.8281,0.88177,78.45,17.21,35.253,784.23,-0.04455,107.07,0.090417,supercritical,Ar,C7440371,argon,150.86,48.9805,13.41,0.07457121551081282,1.3,16.093955757903654,0.00046098216000000004
196.12,789.92,29103.0,3.436e-05,-1.8299,0.88433,78.434,17.214,35.243,784.88,-0.04462,107.2,0.090512,supercritical,Ar,C7440371,argon,150.86,48.9805,13.41,0.07457121551081282,1.3,16.127234307530546,0.0004607676000000001
196.12,791.55,29117.0,3.4344e-05,-1.8316,0.88689,78.419,17.219,35.233,785.54,-0.04469,107.33,0.090606,supercritical,Ar,C7440371,argon,150.86,48.9805,13.41,0.07457121551081282,1.3,16.16051285715744,0.00046055304000000005
196.12,793.18,29131.0,3.4328e-05,-1.8334,0.88946,78.403,17.223,35.223,786.19,-0.04476,107.46,0.090699,supercritical,Ar,C7440371,argon,150.86,48.9805,13.41,0.07457121551081282,1.3,16.19379140678433,0.00046033848000000006
196.12,794.81,29144.0,3.4312e-05,-1.8351,0.89203,78.388,17.227,35.213,786.84,-0.04483,107.59,0.090793,supercritical,Ar,C7440371,argon,150.86,48.9805,13.41,0.07457121551081282,1.3,16.227069956411224,0.00046012392000000006
196.12,796.44,29157.0,3.4297e-05,-1.8369,0.89461,78.373,17.231,35.203,787.49,-0.044899,107.72,0.090887,supercritical,Ar,C7440371,argon,150.86,48.9805,13.41,0.07457121551081282,1.3,16.26034850603812,0.00045992277000000005
196.12,798.07,29171.0,3.4281e-05,-1.8387,0.89719,78.357,17.235,35.194,788.14,-0.044967,107.85,0.090981,supercritical,Ar,C7440371,argon,150.86,48.9805,13.41,0.07457121551081282,1.3,16.29362705566501,0.00045970821000000005
196.12,799.7,29184.0,3.4265e-05,-1.8404,0.89977,78.342,17.239,35.184,788.79,-0.045036,107.98,0.091074,supercritical,Ar,C7440371,argon,150.86,48.9805,13.41,0.07457121551081282,1.3,16.326905605291902,0.00045949365
196.12,801.33,29198.0,3.4249e-05,-1.8422,0.90235,78.327,17.243,35.174,789.44,-0.045104,108.11,0.091168,supercritical,Ar,C7440371,argon,150.86,48.9805,13.41,0.07457121551081282,1.3,16.360184154918795,0.00045927909
196.12,802.96,29211.0,3.4234e-05,-1.8439,0.90494,78.311,17.247,35.165,790.09,-0.045172,108.24,0.091261,supercritical,Ar,C7440371,argon,150.86,48.9805,13.41,0.07457121551081282,1.3,16.393462704545687,0.00045907794
196.12,804.59,29224.0,3.4218e-05,-1.8456,0.90753,78.296,17.252,35.155,790.73,-0.045239,108.37,0.091354,supercritical,Ar,C7440371,argon,150.86,48.9805,13.41,0.07457121551081282,1.3,16.42674125417258,0.00045886338
196.12,806.22,29238.0,3.4203e-05,-1.8474,0.91012,78.281,17.256,35.146,791.38,-0.045306,108.49,0.091448,supercritical,Ar,C7440371,argon,150.86,48.9805,13.41,0.07457121551081282,1.3,16.460019803799472,0.00045866223000000004
196.12,807.85,29251.0,3.4187e-05,-1.8491,0.91272,78.266,17.26,35.136,792.02,-0.045373,108.62,0.091541,supercritical,Ar,C7440371,argon,150.86,48.9805,13.41,0.07457121551081282,1.3,16.493298353426365,0.0004584476700000001
196.12,809.48,29264.0,3.4172e-05,-1.8508,0.91532,78.251,17.264,35.127,792.66,-0.045439,108.75,0.091634,supercritical,Ar,C7440371,argon,150.86,48.9805,13.41,0.07457121551081282,1.3,16.526576903053257,0.00045824652
196.12,811.11,29277.0,3.4156e-05,-1.8525,0.91792,78.236,17.268,35.118,793.31,-0.045505,108.88,0.091726,supercritical,Ar,C7440371,argon,150.86,48.9805,13.41,0.07457121551081282,1.3,16.55985545268015,0.0004580319600000001
196.12,812.74,29290.0,3.4141e-05,-1.8542,0.92053,78.22,17.272,35.108,793.95,-0.045571,109.01,0.091819,supercritical,Ar,C7440371,argon,150.86,48.9805,13.41,0.07457121551081282,1.3,16.593134002307043,0.00045783081
196.12,814.37,29304.0,3.4126e-05,-1.8559,0.92314,78.205,17.276,35.099,794.59,-0.045637,109.14,0.091912,supercritical,Ar,C7440371,argon,150.86,48.9805,13.41,0.07457121551081282,1.3,16.62641255193393,0.00045762966
196.12,816.0,29317.0,3.411e-05,-1.8576,0.92575,78.19,17.28,35.09,795.22,-0.045702,109.27,0.092005,supercritical,Ar,C7440371,argon,150.86,48.9805,13.41,0.07457121551081282,1.3,16.659691101560824,0.0004574151
196.12,817.63,29330.0,3.4095e-05,-1.8593,0.92837,78.175,17.284,35.08,795.86,-0.045767,109.39,0.092097,supercritical,Ar,C7440371,argon,150.86,48.9805,13.41,0.07457121551081282,1.3,16.692969651187717,0.00045721395000000004
196.12,819.26,29343.0,3.408e-05,-1.861,0.93099,78.16,17.288,35.071,796.5,-0.045831,109.52,0.092189,supercritical,Ar,C7440371,argon,150.86,48.9805,13.41,0.07457121551081282,1.3,16.72624820081461,0.0004570128
196.12,820.89,29356.0,3.4065e-05,-1.8627,0.93361,78.145,17.292,35.062,797.13,-0.045895,109.65,0.092282,supercritical,Ar,C7440371,argon,150.86,48.9805,13.41,0.07457121551081282,1.3,16.759526750441502,0.00045681165000000006
196.12,822.52,29369.0,3.405e-05,-1.8644,0.93623,78.131,17.297,35.053,797.77,-0.045959,109.78,0.092374,supercritical,Ar,C7440371,argon,150.86,48.9805,13.41,0.07457121551081282,1.3,16.792805300068395,0.00045661050000000004
196.12,824.15,29382.0,3.4035e-05,-1.8661,0.93886,78.116,17.301,35.044,798.4,-0.046023,109.91,0.092466,supercritical,Ar,C7440371,argon,150.86,48.9805,13.41,0.07457121551081282,1.3,16.826083849695287,0.0004564093500000001
196.12,825.78,29395.0,3.402e-05,-1.8678,0.94149,78.101,17.305,35.035,799.03,-0.046086,110.03,0.092558,supercritical,Ar,C7440371,argon,150.86,48.9805,13.41,0.07457121551081282,1.3,16.85936239932218,0.00045620820000000006
196.12,827.41,29408.0,3.4005e-05,-1.8695,0.94412,78.086,17.309,35.026,799.67,-0.046149,110.16,0.09265,supercritical,Ar,C7440371,argon,150.86,48.9805,13.41,0.07457121551081282,1.3,16.892640948949072,0.00045600705
196.12,829.04,29421.0,3.399e-05,-1.8711,0.94676,78.071,17.313,35.017,800.3,-0.046212,110.29,0.092742,supercritical,Ar,C7440371,argon,150.86,48.9805,13.41,0.07457121551081282,1.3,16.925919498575965,0.0004558059
196.12,830.67,29434.0,3.3975e-05,-1.8728,0.9494,78.056,17.317,35.008,800.93,-0.046274,110.42,0.092834,supercritical,Ar,C7440371,argon,150.86,48.9805,13.41,0.07457121551081282,1.3,16.959198048202854,0.00045560475
196.12,832.3,29446.0,3.396e-05,-1.8745,0.95204,78.042,17.321,35.0,801.55,-0.046336,110.55,0.092926,supercritical,Ar,C7440371,argon,150.86,48.9805,13.41,0.07457121551081282,1.3,16.992476597829747,0.00045540360000000005
196.12,833.93,29459.0,3.3945e-05,-1.8761,0.95469,78.027,17.325,34.991,802.18,-0.046398,110.67,0.093017,supercritical,Ar,C7440371,argon,150.86,48.9805,13.41,0.07457121551081282,1.3,17.02575514745664,0.0004552024500000001
196.12,835.56,29472.0,3.3931e-05,-1.8778,0.95733,78.012,17.329,34.982,802.81,-0.046459,110.8,0.093109,supercritical,Ar,C7440371,argon,150.86,48.9805,13.41,0.07457121551081282,1.3,17.05903369708353,0.00045501471
196.12,837.19,29485.0,3.3916e-05,-1.8794,0.95998,77.997,17.333,34.973,803.43,-0.046521,110.93,0.0932,supercritical,Ar,C7440371,argon,150.86,48.9805,13.41,0.07457121551081282,1.3,17.092312246710428,0.00045481356
196.12,838.82,29497.0,3.3901e-05,-1.8811,0.96264,77.983,17.337,34.965,804.06,-0.046582,111.06,0.093291,supercritical,Ar,C7440371,argon,150.86,48.9805,13.41,0.07457121551081282,1.3,17.12559079633732,0.00045461241000000006
196.12,840.45,29510.0,3.3887e-05,-1.8827,0.96529,77.968,17.341,34.956,804.68,-0.046642,111.18,0.093383,supercritical,Ar,C7440371,argon,150.86,48.9805,13.41,0.07457121551081282,1.3,17.158869345964213,0.00045442467000000007
196.12,842.08,29523.0,3.3872e-05,-1.8843,0.96795,77.954,17.345,34.947,805.3,-0.046702,111.31,0.093474,supercritical,Ar,C7440371,argon,150.86,48.9805,13.41,0.07457121551081282,1.3,17.192147895591102,0.00045422352
196.12,843.71,29536.0,3.3858e-05,-1.886,0.97061,77.939,17.349,34.939,805.92,-0.046763,111.44,0.093565,supercritical,Ar,C7440371,argon,150.86,48.9805,13.41,0.07457121551081282,1.3,17.225426445217995,0.00045403578000000007
196.12,845.34,29548.0,3.3843e-05,-1.8876,0.97328,77.924,17.353,34.93,806.55,-0.046822,111.56,0.093656,supercritical,Ar,C7440371,argon,150.86,48.9805,13.41,0.07457121551081282,1.3,17.258704994844887,0.00045383463000000005
196.12,846.97,29561.0,3.3829e-05,-1.8892,0.97595,77.91,17.357,34.922,807.16,-0.046882,111.69,0.093747,supercritical,Ar,C7440371,argon,150.86,48.9805,13.41,0.07457121551081282,1.3,17.29198354447178,0.00045364689
196.12,848.6,29573.0,3.3814e-05,-1.8909,0.97862,77.895,17.361,34.913,807.78,-0.046941,111.82,0.093838,supercritical,Ar,C7440371,argon,150.86,48.9805,13.41,0.07457121551081282,1.3,17.325262094098672,0.00045344574000000004
196.12,850.23,29586.0,3.38e-05,-1.8925,0.98129,77.881,17.365,34.905,808.4,-0.047,111.94,0.093928,supercritical,Ar,C7440371,argon,150.86,48.9805,13.41,0.07457121551081282,1.3,17.358540643725565,0.00045325800000000006
196.12,851.86,29598.0,3.3786e-05,-1.8941,0.98396,77.866,17.369,34.897,809.02,-0.047059,112.07,0.094019,supercritical,Ar,C7440371,argon,150.86,48.9805,13.41,0.07457121551081282,1.3,17.391819193352458,0.00045307026
196.12,853.49,29611.0,3.3771e-05,-1.8957,0.98664,77.852,17.373,34.888,809.63,-0.047117,112.2,0.094109,supercritical,Ar,C7440371,argon,150.86,48.9805,13.41,0.07457121551081282,1.3,17.42509774297935,0.00045286911000000005
196.12,855.12,29623.0,3.3757e-05,-1.8973,0.98932,77.838,17.377,34.88,810.25,-0.047175,112.33,0.0942,supercritical,Ar,C7440371,argon,150.86,48.9805,13.41,0.07457121551081282,1.3,17.458376292606243,0.00045268137000000006
196.12,856.75,29636.0,3.3743e-05,-1.8989,0.99201,77.823,17.381,34.872,810.86,-0.047233,112.45,0.09429,supercritical,Ar,C7440371,argon,150.86,48.9805,13.41,0.07457121551081282,1.3,17.491654842233135,0.00045249363
196.12,858.38,29648.0,3.3729e-05,-1.9005,0.99469,77.809,17.385,34.864,811.48,-0.047291,112.58,0.094381,supercritical,Ar,C7440371,argon,150.86,48.9805,13.41,0.07457121551081282,1.3,17.524933391860028,0.0004523058900000001
196.12,860.01,29661.0,3.3715e-05,-1.9021,0.99738,77.795,17.389,34.855,812.09,-0.047348,112.7,0.094471,supercritical,Ar,C7440371,argon,150.86,48.9805,13.41,0.07457121551081282,1.3,17.558211941486917,0.00045211815000000005
196.12,861.64,29673.0,3.37e-05,-1.9037,1.0001,77.78,17.393,34.847,812.7,-0.047405,112.83,0.094561,supercritical,Ar,C7440371,argon,150.86,48.9805,13.41,0.07457121551081282,1.3,17.59149049111381,0.00045191700000000003
196.12,863.27,29686.0,3.3686e-05,-1.9053,1.0028,77.766,17.397,34.839,813.31,-0.047462,112.96,0.094651,supercritical,Ar,C7440371,argon,150.86,48.9805,13.41,0.07457121551081282,1.3,17.624769040740702,0.0004517292600000001
196.12,864.9,29698.0,3.3672e-05,-1.9069,1.0055,77.752,17.401,34.831,813.92,-0.047518,113.08,0.094741,supercritical,Ar,C7440371,argon,150.86,48.9805,13.41,0.07457121551081282,1.3,17.658047590367595,0.00045154152000000006
196.12,866.53,29710.0,3.3658e-05,-1.9084,1.0082,77.738,17.405,34.823,814.53,-0.047574,113.21,0.094831,supercritical,Ar,C7440371,argon,150.86,48.9805,13.41,0.07457121551081282,1.3,17.691326139994487,0.00045135378000000007
196.12,868.16,29723.0,3.3645e-05,-1.91,1.0109,77.723,17.409,34.815,815.13,-0.047631,113.34,0.09492,supercritical,Ar,C7440371,argon,150.86,48.9805,13.41,0.07457121551081282,1.3,17.72460468962138,0.00045117945000000006
196.12,869.79,29735.0,3.3631e-05,-1.9116,1.0136,77.709,17.413,34.807,815.74,-0.047686,113.46,0.09501,supercritical,Ar,C7440371,argon,150.86,48.9805,13.41,0.07457121551081282,1.3,17.757883239248272,0.00045099171
196.12,871.42,29747.0,3.3617e-05,-1.9132,1.0163,77.695,17.417,34.799,816.35,-0.047742,113.59,0.0951,supercritical,Ar,C7440371,argon,150.86,48.9805,13.41,0.07457121551081282,1.3,17.791161788875165,0.00045080397000000003
196.12,873.05,29759.0,3.3603e-05,-1.9147,1.019,77.681,17.421,34.791,816.95,-0.047797,113.71,0.095189,supercritical,Ar,C7440371,argon,150.86,48.9805,13.41,0.07457121551081282,1.3,17.824440338502058,0.0004506162300000001
196.12,874.68,29771.0,3.3589e-05,-1.9163,1.0217,77.667,17.425,34.783,817.55,-0.047852,113.84,0.095279,supercritical,Ar,C7440371,argon,150.86,48.9805,13.41,0.07457121551081282,1.3,17.85771888812895,0.00045042849000000005
196.12,876.31,29784.0,3.3576e-05,-1.9178,1.0244,77.653,17.429,34.775,818.16,-0.047907,113.97,0.095368,supercritical,Ar,C7440371,argon,150.86,48.9805,13.41,0.07457121551081282,1.3,17.89099743775584,0.00045025416000000004
196.12,877.94,29796.0,3.3562e-05,-1.9194,1.0271,77.639,17.433,34.768,818.76,-0.047961,114.09,0.095457,supercritical,Ar,C7440371,argon,150.86,48.9805,13.41,0.07457121551081282,1.3,17.924275987382735,0.00045006642000000005
196.12,879.57,29808.0,3.3548e-05,-1.9209,1.0298,77.625,17.437,34.76,819.36,-0.048015,114.22,0.095546,supercritical,Ar,C7440371,argon,150.86,48.9805,13.41,0.07457121551081282,1.3,17.957554537009628,0.00044987868
196.12,881.2,29820.0,3.3535e-05,-1.9225,1.0326,77.611,17.441,34.752,819.96,-0.048069,114.34,0.095635,supercritical,Ar,C7440371,argon,150.86,48.9805,13.41,0.07457121551081282,1.3,17.99083308663652,0.0004497043500000001
196.12,882.83,29832.0,3.3521e-05,-1.924,1.0353,77.597,17.445,34.744,820.56,-0.048123,114.47,0.095724,supercritical,Ar,C7440371,argon,150.86,48.9805,13.41,0.07457121551081282,1.3,18.024111636263413,0.00044951661000000007
196.12,884.46,29844.0,3.3507e-05,-1.9256,1.038,77.583,17.449,34.737,821.16,-0.048177,114.6,0.095813,supercritical,Ar,C7440371,argon,150.86,48.9805,13.41,0.07457121551081282,1.3,18.057390185890306,0.0004493288700000001
196.12,886.09,29856.0,3.3494e-05,-1.9271,1.0407,77.569,17.453,34.729,821.76,-0.04823,114.72,0.095902,supercritical,Ar,C7440371,argon,150.86,48.9805,13.41,0.07457121551081282,1.3,18.0906687355172,0.00044915454000000007
196.12,887.72,29868.0,3.348e-05,-1.9286,1.0435,77.555,17.457,34.721,822.35,-0.048283,114.85,0.095991,supercritical,Ar,C7440371,argon,150.86,48.9805,13.41,0.07457121551081282,1.3,18.123947285144087,0.0004489668
196.12,889.35,29880.0,3.3467e-05,-1.9302,1.0462,77.541,17.461,34.714,822.95,-0.048336,114.97,0.09608,supercritical,Ar,C7440371,argon,150.86,48.9805,13.41,0.07457121551081282,1.3,18.15722583477098,0.00044879247000000007