Temperature (K),Pressure (bar),Density (mol/m3),Volume (m3/mol),Internal Energy (kJ/mol),Enthalpy (kJ/mol),Entropy (J/mol*K),Cv (J/mol*K),Cp (J/mol*K),Sound Spd. (m/s),Joule-Thomson (K/bar),Viscosity (uPa*s),Therm. Cond. (W/m*K),Phase,substance,substance_id,substance_name,Tc,Pc,rhoc,Vmc,Tr,Pr,Vmr
170.04,130.68,21138.0,4.7309e-05,0.1193,0.73752,129.88,25.594,79.922,374.29,0.090964,44.307,0.062565,supercritical,O2,C7782447,oxygen,154.58,50.43,13.6,0.07352941176470588,1.1,2.5913146936347413,0.0006434024
170.04,132.04,21231.0,4.71e-05,0.10586,0.72777,129.78,25.575,79.194,377.34,0.088576,44.613,0.062867,supercritical,O2,C7782447,oxygen,154.58,50.43,13.6,0.07352941176470588,1.1,2.6182827681935357,0.00064056
170.04,133.41,21323.0,4.6897e-05,0.092724,0.71836,129.69,25.556,78.496,380.34,0.086274,44.915,0.063165,supercritical,O2,C7782447,oxygen,154.58,50.43,13.6,0.07352941176470588,1.1,2.645449137418203,0.0006377992
170.04,134.77,21413.0,4.6701e-05,0.07988,0.70927,129.6,25.537,77.827,383.31,0.084053,45.212,0.063459,supercritical,O2,C7782447,oxygen,154.58,50.43,13.6,0.07352941176470588,1.1,2.672417211976998,0.0006351336
170.04,136.13,21500.0,4.6511e-05,0.067314,0.7005,129.51,25.52,77.183,386.23,0.081908,45.505,0.063749,supercritical,O2,C7782447,oxygen,154.58,50.43,13.6,0.07352941176470588,1.1,2.699385286535792,0.0006325496
170.04,137.5,21586.0,4.6327e-05,0.055013,0.69201,129.42,25.504,76.565,389.12,0.079836,45.794,0.064036,supercritical,O2,C7782447,oxygen,154.58,50.43,13.6,0.07352941176470588,1.1,2.72655165576046,0.0006300472
170.04,138.87,21669.0,4.6148e-05,0.042967,0.6838,129.34,25.488,75.971,391.96,0.077832,46.08,0.064319,supercritical,O2,C7782447,oxygen,154.58,50.43,13.6,0.07352941176470588,1.1,2.753718024985128,0.0006276128
170.04,140.23,21751.0,4.5974e-05,0.031164,0.67586,129.25,25.473,75.398,394.77,0.075894,46.361,0.0646,supercritical,O2,C7782447,oxygen,154.58,50.43,13.6,0.07352941176470588,1.1,2.780686099543922,0.0006252463999999999
170.04,141.59,21831.0,4.5806e-05,0.019593,0.66818,129.17,25.459,74.846,397.55,0.074019,46.639,0.064877,supercritical,O2,C7782447,oxygen,154.58,50.43,13.6,0.07352941176470588,1.1,2.8076541741027166,0.0006229616
170.04,142.96,21910.0,4.5641e-05,0.0082463,0.66074,129.09,25.446,74.315,400.28,0.072202,46.914,0.065151,supercritical,O2,C7782447,oxygen,154.58,50.43,13.6,0.07352941176470588,1.1,2.8348205433273845,0.0006207176
170.04,144.32,21987.0,4.5482e-05,-0.0028867,0.65353,129.01,25.433,73.801,402.99,0.070441,47.185,0.065422,supercritical,O2,C7782447,oxygen,154.58,50.43,13.6,0.07352941176470588,1.1,2.861788617886179,0.0006185552
170.04,145.69,22062.0,4.5326e-05,-0.013814,0.64654,128.93,25.421,73.306,405.66,0.068733,47.453,0.06569,supercritical,O2,C7782447,oxygen,154.58,50.43,13.6,0.07352941176470588,1.1,2.888954987110847,0.0006164336
170.04,147.06,22136.0,4.5174e-05,-0.024544,0.63977,128.86,25.41,72.827,408.3,0.067077,47.718,0.065956,supercritical,O2,C7782447,oxygen,154.58,50.43,13.6,0.07352941176470588,1.1,2.916121356335515,0.0006143664
170.04,148.42,22209.0,4.5027e-05,-0.035083,0.6332,128.78,25.399,72.364,410.9,0.065469,47.981,0.066219,supercritical,O2,C7782447,oxygen,154.58,50.43,13.6,0.07352941176470588,1.1,2.9430894308943087,0.0006123672
170.04,149.78,22280.0,4.4882e-05,-0.04544,0.62683,128.71,25.388,71.917,413.48,0.063907,48.24,0.066479,supercritical,O2,C7782447,oxygen,154.58,50.43,13.6,0.07352941176470588,1.1,2.9700575054531035,0.0006103952
170.04,151.15,22350.0,4.4742e-05,-0.05562,0.62065,128.64,25.379,71.483,416.02,0.06239,48.497,0.066737,supercritical,O2,C7782447,oxygen,154.58,50.43,13.6,0.07352941176470588,1.1,2.9972238746777715,0.0006084912
170.04,152.51,22419.0,4.4604e-05,-0.065631,0.61465,128.56,25.369,71.064,418.54,0.060915,48.751,0.066993,supercritical,O2,C7782447,oxygen,154.58,50.43,13.6,0.07352941176470588,1.1,3.0241919492365654,0.0006066144
170.04,153.88,22487.0,4.447e-05,-0.075477,0.60883,128.49,25.36,70.657,421.02,0.059481,49.002,0.067246,supercritical,O2,C7782447,oxygen,154.58,50.43,13.6,0.07352941176470588,1.1,3.0513583184612334,0.0006047919999999999
170.04,155.25,22553.0,4.4339e-05,-0.085166,0.60318,128.43,25.352,70.263,423.48,0.058085,49.251,0.067497,supercritical,O2,C7782447,oxygen,154.58,50.43,13.6,0.07352941176470588,1.1,3.0785246876859014,0.0006030104
170.04,156.61,22619.0,4.4211e-05,-0.094701,0.59769,128.36,25.344,69.88,425.91,0.056727,49.498,0.067747,supercritical,O2,C7782447,oxygen,154.58,50.43,13.6,0.07352941176470588,1.1,3.1054927622446957,0.0006012696
170.04,157.97,22683.0,4.4086e-05,-0.10409,0.59235,128.29,25.337,69.509,428.31,0.055404,49.742,0.067994,supercritical,O2,C7782447,oxygen,154.58,50.43,13.6,0.07352941176470588,1.1,3.13246083680349,0.0005995696
170.04,159.34,22746.0,4.3963e-05,-0.11333,0.58717,128.23,25.33,69.149,430.69,0.054115,49.984,0.068239,supercritical,O2,C7782447,oxygen,154.58,50.43,13.6,0.07352941176470588,1.1,3.159627206028158,0.0005978967999999999
170.04,160.71,22809.0,4.3843e-05,-0.12244,0.58214,128.16,25.323,68.798,433.04,0.052859,50.224,0.068482,supercritical,O2,C7782447,oxygen,154.58,50.43,13.6,0.07352941176470588,1.1,3.186793575252826,0.0005962647999999999
170.04,162.07,22870.0,4.3725e-05,-0.13141,0.57724,128.1,25.317,68.458,435.37,0.051635,50.462,0.068723,supercritical,O2,C7782447,oxygen,154.58,50.43,13.6,0.07352941176470588,1.1,3.21376164981162,0.00059466
170.04,163.44,22930.0,4.361e-05,-0.14026,0.57249,128.03,25.311,68.127,437.67,0.050441,50.698,0.068962,supercritical,O2,C7782447,oxygen,154.58,50.43,13.6,0.07352941176470588,1.1,3.240928019036288,0.000593096
170.04,164.8,22990.0,4.3497e-05,-0.14898,0.56786,127.97,25.306,67.805,439.95,0.049276,50.932,0.069199,supercritical,O2,C7782447,oxygen,154.58,50.43,13.6,0.07352941176470588,1.1,3.2678960935950827,0.0005915592
170.04,166.16,23048.0,4.3387e-05,-0.15757,0.56336,127.91,25.301,67.492,442.21,0.048139,51.164,0.069435,supercritical,O2,C7782447,oxygen,154.58,50.43,13.6,0.07352941176470588,1.1,3.2948641681538766,0.0005900632
170.04,167.53,23106.0,4.3278e-05,-0.16605,0.55899,127.85,25.296,67.187,444.44,0.047029,51.394,0.069669,supercritical,O2,C7782447,oxygen,154.58,50.43,13.6,0.07352941176470588,1.1,3.3220305373785446,0.0005885808
170.04,168.9,23163.0,4.3172e-05,-0.17442,0.55474,127.79,25.291,66.89,446.65,0.045944,51.622,0.069902,supercritical,O2,C7782447,oxygen,154.58,50.43,13.6,0.07352941176470588,1.1,3.3491969066032126,0.0005871391999999999
170.04,170.26,23219.0,4.3067e-05,-0.18267,0.5506,127.73,25.287,66.6,448.84,0.044885,51.849,0.070132,supercritical,O2,C7782447,oxygen,154.58,50.43,13.6,0.07352941176470588,1.1,3.3761649811620065,0.0005857112
170.04,171.62,23275.0,4.2965e-05,-0.19081,0.54657,127.67,25.283,66.318,451.01,0.04385,52.074,0.070362,supercritical,O2,C7782447,oxygen,154.58,50.43,13.6,0.07352941176470588,1.1,3.4031330557208013,0.000584324
170.04,172.99,23329.0,4.2864e-05,-0.19885,0.54266,127.62,25.28,66.043,453.16,0.042838,52.297,0.070589,supercritical,O2,C7782447,oxygen,154.58,50.43,13.6,0.07352941176470588,1.1,3.4302994249454692,0.0005829504
170.04,174.35,23383.0,4.2766e-05,-0.20679,0.53885,127.56,25.277,65.774,455.28,0.041849,52.519,0.070816,supercritical,O2,C7782447,oxygen,154.58,50.43,13.6,0.07352941176470588,1.1,3.457267499504263,0.0005816176
170.04,175.72,23437.0,4.2668e-05,-0.21463,0.53514,127.5,25.274,65.512,457.39,0.040881,52.739,0.07104,supercritical,O2,C7782447,oxygen,154.58,50.43,13.6,0.07352941176470588,1.1,3.484433868728931,0.0005802848
170.04,177.09,23489.0,4.2573e-05,-0.22237,0.53154,127.45,25.271,65.257,459.48,0.039935,52.957,0.071264,supercritical,O2,C7782447,oxygen,154.58,50.43,13.6,0.07352941176470588,1.1,3.511600237953599,0.0005789928
170.04,178.45,23541.0,4.2479e-05,-0.23002,0.52803,127.39,25.268,65.007,461.54,0.039008,53.174,0.071486,supercritical,O2,C7782447,oxygen,154.58,50.43,13.6,0.07352941176470588,1.1,3.538568312512393,0.0005777143999999999
170.04,179.81,23592.0,4.2387e-05,-0.23757,0.52461,127.34,25.266,64.763,463.59,0.038101,53.39,0.071706,supercritical,O2,C7782447,oxygen,154.58,50.43,13.6,0.07352941176470588,1.1,3.565536387071188,0.0005764632
170.04,181.18,23643.0,4.2296e-05,-0.24504,0.52129,127.28,25.264,64.525,465.62,0.037213,53.604,0.071925,supercritical,O2,C7782447,oxygen,154.58,50.43,13.6,0.07352941176470588,1.1,3.592702756295856,0.0005752256
170.04,182.54,23693.0,4.2207e-05,-0.25242,0.51806,127.23,25.262,64.292,467.63,0.036343,53.817,0.072143,supercritical,O2,C7782447,oxygen,154.58,50.43,13.6,0.07352941176470588,1.1,3.6196708308546497,0.0005740151999999999
170.04,183.91,23742.0,4.212e-05,-0.25971,0.51491,127.18,25.261,64.064,469.63,0.03549,54.028,0.07236,supercritical,O2,C7782447,oxygen,154.58,50.43,13.6,0.07352941176470588,1.1,3.6468372000793177,0.000572832
170.04,185.28,23791.0,4.2033e-05,-0.26692,0.51185,127.13,25.26,63.841,471.61,0.034655,54.238,0.072575,supercritical,O2,C7782447,oxygen,154.58,50.43,13.6,0.07352941176470588,1.1,3.6740035693039856,0.0005716488
170.04,186.64,23839.0,4.1948e-05,-0.27405,0.50887,127.08,25.258,63.623,473.57,0.033837,54.447,0.07279,supercritical,O2,C7782447,oxygen,154.58,50.43,13.6,0.07352941176470588,1.1,3.70097164386278,0.0005704928
170.04,188.0,23887.0,4.1865e-05,-0.2811,0.50597,127.03,25.257,63.41,475.51,0.033034,54.655,0.073003,supercritical,O2,C7782447,oxygen,154.58,50.43,13.6,0.07352941176470588,1.1,3.7279397184215743,0.0005693639999999999
170.04,189.37,23934.0,4.1782e-05,-0.28808,0.50315,126.98,25.257,63.201,477.44,0.032247,54.861,0.073215,supercritical,O2,C7782447,oxygen,154.58,50.43,13.6,0.07352941176470588,1.1,3.7551060876462423,0.0005682352
170.04,190.74,23980.0,4.1701e-05,-0.29498,0.50041,126.93,25.256,62.997,479.35,0.031475,55.066,0.073425,supercritical,O2,C7782447,oxygen,154.58,50.43,13.6,0.07352941176470588,1.1,3.7822724568709103,0.0005671335999999999
170.04,192.1,24026.0,4.1621e-05,-0.30181,0.49774,126.88,25.256,62.797,481.25,0.030718,55.27,0.073635,supercritical,O2,C7782447,oxygen,154.58,50.43,13.6,0.07352941176470588,1.1,3.8092405314297046,0.0005660456
170.04,193.47,24072.0,4.1542e-05,-0.30856,0.49514,126.83,25.256,62.601,483.13,0.029975,55.473,0.073844,supercritical,O2,C7782447,oxygen,154.58,50.43,13.6,0.07352941176470588,1.1,3.836406900654372,0.0005649712
170.04,194.83,24117.0,4.1465e-05,-0.31525,0.49261,126.78,25.255,62.409,484.99,0.029246,55.675,0.074051,supercritical,O2,C7782447,oxygen,154.58,50.43,13.6,0.07352941176470588,1.1,3.863374975213167,0.0005639239999999999
170.04,196.19,24161.0,4.1388e-05,-0.32186,0.49016,126.73,25.256,62.221,486.84,0.02853,55.876,0.074257,supercritical,O2,C7782447,oxygen,154.58,50.43,13.6,0.07352941176470588,1.1,3.8903430497719613,0.0005628768
170.04,197.56,24206.0,4.1313e-05,-0.32841,0.48777,126.69,25.256,62.036,488.68,0.027827,56.075,0.074463,supercritical,O2,C7782447,oxygen,154.58,50.43,13.6,0.07352941176470588,1.1,3.917509418996629,0.0005618568000000001
170.04,198.93,24249.0,4.1239e-05,-0.33489,0.48544,126.64,25.256,61.855,490.5,0.027137,56.274,0.074667,supercritical,O2,C7782447,oxygen,154.58,50.43,13.6,0.07352941176470588,1.1,3.944675788221297,0.0005608504
170.04,200.29,24292.0,4.1165e-05,-0.34131,0.48318,126.59,25.257,61.678,492.31,0.026459,56.471,0.074871,supercritical,O2,C7782447,oxygen,154.58,50.43,13.6,0.07352941176470588,1.1,3.971643862780091,0.000559844
170.04,201.66,24335.0,4.1093e-05,-0.34767,0.48099,126.55,25.258,61.504,494.1,0.025793,56.668,0.075073,supercritical,O2,C7782447,oxygen,154.58,50.43,13.6,0.07352941176470588,1.1,3.998810232004759,0.0005588648
170.04,203.02,24377.0,4.1022e-05,-0.35397,0.47885,126.5,25.258,61.333,495.88,0.025139,56.863,0.075274,supercritical,O2,C7782447,oxygen,154.58,50.43,13.6,0.07352941176470588,1.1,4.025778306563554,0.0005578992
170.04,204.38,24419.0,4.0951e-05,-0.3602,0.47678,126.46,25.259,61.165,497.65,0.024496,57.058,0.075475,supercritical,O2,C7782447,oxygen,154.58,50.43,13.6,0.07352941176470588,1.1,4.052746381122348,0.0005569336
170.04,205.75,24461.0,4.0882e-05,-0.36638,0.47476,126.41,25.261,61.001,499.4,0.023864,57.251,0.075674,supercritical,O2,C7782447,oxygen,154.58,50.43,13.6,0.07352941176470588,1.1,4.079912750347016,0.0005559952
170.04,207.12,24502.0,4.0813e-05,-0.3725,0.4728,126.37,25.262,60.839,501.14,0.023242,57.444,0.075873,supercritical,O2,C7782447,oxygen,154.58,50.43,13.6,0.07352941176470588,1.1,4.107079119571684,0.0005550567999999999
170.04,208.48,24543.0,4.0745e-05,-0.37856,0.4709,126.32,25.263,60.681,502.87,0.022631,57.636,0.076071,supercritical,O2,C7782447,oxygen,154.58,50.43,13.6,0.07352941176470588,1.1,4.134047194130478,0.0005541319999999999
170.04,209.84,24583.0,4.0678e-05,-0.38456,0.46905,126.28,25.265,60.525,504.58,0.02203,57.827,0.076268,supercritical,O2,C7782447,oxygen,154.58,50.43,13.6,0.07352941176470588,1.1,4.1610152686892725,0.0005532207999999999
170.04,211.21,24623.0,4.0612e-05,-0.39052,0.46726,126.24,25.266,60.372,506.29,0.021439,58.017,0.076464,supercritical,O2,C7782447,oxygen,154.58,50.43,13.6,0.07352941176470588,1.1,4.1881816379139405,0.0005523231999999999
170.04,212.57,24663.0,4.0547e-05,-0.39641,0.46552,126.19,25.268,60.222,507.98,0.020858,58.206,0.076659,supercritical,O2,C7782447,oxygen,154.58,50.43,13.6,0.07352941176470588,1.1,4.215149712472734,0.0005514392
170.04,213.94,24702.0,4.0483e-05,-0.40226,0.46383,126.15,25.27,60.074,509.66,0.020286,58.394,0.076853,supercritical,O2,C7782447,oxygen,154.58,50.43,13.6,0.07352941176470588,1.1,4.242316081697402,0.0005505687999999999
170.04,215.31,24741.0,4.0419e-05,-0.40805,0.46219,126.11,25.272,59.929,511.32,0.019723,58.582,0.077047,supercritical,O2,C7782447,oxygen,154.58,50.43,13.6,0.07352941176470588,1.1,4.26948245092207,0.0005496984
170.04,216.67,24779.0,4.0356e-05,-0.4138,0.4606,126.07,25.274,59.786,512.98,0.019169,58.769,0.07724,supercritical,O2,C7782447,oxygen,154.58,50.43,13.6,0.07352941176470588,1.1,4.296450525480864,0.0005488416
170.04,218.03,24817.0,4.0294e-05,-0.41949,0.45906,126.03,25.276,59.646,514.63,0.018624,58.955,0.077431,supercritical,O2,C7782447,oxygen,154.58,50.43,13.6,0.07352941176470588,1.1,4.323418600039659,0.0005479984
170.04,219.4,24855.0,4.0233e-05,-0.42514,0.45757,125.98,25.278,59.508,516.26,0.018087,59.14,0.077623,supercritical,O2,C7782447,oxygen,154.58,50.43,13.6,0.07352941176470588,1.1,4.350584969264327,0.0005471688
170.04,220.76,24893.0,4.0172e-05,-0.43074,0.45613,125.94,25.28,59.372,517.88,0.017559,59.324,0.077813,supercritical,O2,C7782447,oxygen,154.58,50.43,13.6,0.07352941176470588,1.1,4.377553043823121,0.0005463392
170.04,222.13,24930.0,4.0112e-05,-0.43629,0.45473,125.9,25.283,59.239,519.49,0.017038,59.508,0.078003,supercritical,O2,C7782447,oxygen,154.58,50.43,13.6,0.07352941176470588,1.1,4.404719413047789,0.0005455232
170.04,223.5,24967.0,4.0053e-05,-0.4418,0.45337,125.86,25.285,59.107,521.1,0.016526,59.691,0.078191,supercritical,O2,C7782447,oxygen,154.58,50.43,13.6,0.07352941176470588,1.1,4.431885782272457,0.0005447207999999999
170.04,224.86,25003.0,3.9995e-05,-0.44726,0.45206,125.82,25.288,58.978,522.69,0.016021,59.873,0.078379,supercritical,O2,C7782447,oxygen,154.58,50.43,13.6,0.07352941176470588,1.1,4.458853856831252,0.000543932
170.04,226.22,25040.0,3.9937e-05,-0.45268,0.45079,125.78,25.29,58.851,524.27,0.015523,60.054,0.078567,supercritical,O2,C7782447,oxygen,154.58,50.43,13.6,0.07352941176470588,1.1,4.485821931390046,0.0005431432
170.04,227.59,25076.0,3.9879e-05,-0.45805,0.44956,125.74,25.293,58.726,525.84,0.015033,60.235,0.078754,supercritical,O2,C7782447,oxygen,154.58,50.43,13.6,0.07352941176470588,1.1,4.512988300614714,0.0005423544
170.04,228.96,25111.0,3.9823e-05,-0.46338,0.44838,125.71,25.296,58.603,527.4,0.01455,60.415,0.07894,supercritical,O2,C7782447,oxygen,154.58,50.43,13.6,0.07352941176470588,1.1,4.5401546698393815,0.0005415928
170.04,230.32,25147.0,3.9767e-05,-0.46867,0.44724,125.67,25.299,58.481,528.95,0.014075,60.595,0.079125,supercritical,O2,C7782447,oxygen,154.58,50.43,13.6,0.07352941176470588,1.1,4.5671227443981754,0.0005408312
170.04,231.69,25182.0,3.9711e-05,-0.47392,0.44613,125.63,25.302,58.362,530.49,0.013606,60.773,0.079309,supercritical,O2,C7782447,oxygen,154.58,50.43,13.6,0.07352941176470588,1.1,4.594289113622843,0.0005400696
170.04,233.05,25217.0,3.9656e-05,-0.47913,0.44507,125.59,25.305,58.244,532.03,0.013143,60.951,0.079493,supercritical,O2,C7782447,oxygen,154.58,50.43,13.6,0.07352941176470588,1.1,4.621257188181638,0.0005393216
170.04,234.41,25251.0,3.9602e-05,-0.48429,0.44404,125.55,25.308,58.128,533.55,0.012687,61.129,0.079677,supercritical,O2,C7782447,oxygen,154.58,50.43,13.6,0.07352941176470588,1.1,4.648225262740432,0.0005385871999999999
170.04,235.78,25285.0,3.9549e-05,-0.48942,0.44305,125.51,25.311,58.014,535.06,0.012238,61.306,0.079859,supercritical,O2,C7782447,oxygen,154.58,50.43,13.6,0.07352941176470588,1.1,4.6753916319651,0.0005378663999999999
170.04,237.15,25319.0,3.9495e-05,-0.49451,0.4421,125.48,25.314,57.902,536.57,0.011795,61.482,0.080041,supercritical,O2,C7782447,oxygen,154.58,50.43,13.6,0.07352941176470588,1.1,4.702558001189768,0.000537132
170.04,238.51,25353.0,3.9443e-05,-0.49956,0.44119,125.44,25.318,57.791,538.06,0.011358,61.657,0.080222,supercritical,O2,C7782447,oxygen,154.58,50.43,13.6,0.07352941176470588,1.1,4.729526075748562,0.0005364248
170.04,239.88,25387.0,3.9391e-05,-0.50457,0.44031,125.4,25.321,57.681,539.55,0.010927,61.832,0.080403,supercritical,O2,C7782447,oxygen,154.58,50.43,13.6,0.07352941176470588,1.1,4.75669244497323,0.0005357176
170.04,241.24,25420.0,3.9339e-05,-0.50955,0.43947,125.37,25.324,57.574,541.03,0.010502,62.007,0.080583,supercritical,O2,C7782447,oxygen,154.58,50.43,13.6,0.07352941176470588,1.1,4.783660519532025,0.0005350104
170.04,242.6,25453.0,3.9288e-05,-0.51449,0.43866,125.33,25.328,57.468,542.5,0.010082,62.181,0.080762,supercritical,O2,C7782447,oxygen,154.58,50.43,13.6,0.07352941176470588,1.1,4.810628594090819,0.0005343168
170.04,243.97,25486.0,3.9238e-05,-0.51939,0.43789,125.29,25.331,57.363,543.96,0.0096686,62.354,0.080941,supercritical,O2,C7782447,oxygen,154.58,50.43,13.6,0.07352941176470588,1.1,4.837794963315487,0.0005336367999999999
170.04,245.34,25518.0,3.9188e-05,-0.52426,0.43715,125.26,25.335,57.26,545.41,0.0092603,62.526,0.081119,supercritical,O2,C7782447,oxygen,154.58,50.43,13.6,0.07352941176470588,1.1,4.864961332540155,0.0005329568
170.04,246.7,25551.0,3.9138e-05,-0.5291,0.43644,125.22,25.338,57.158,546.86,0.0088574,62.698,0.081297,supercritical,O2,C7782447,oxygen,154.58,50.43,13.6,0.07352941176470588,1.1,4.8919294070989485,0.0005322768
170.04,248.06,25583.0,3.9089e-05,-0.5339,0.43576,125.19,25.342,57.058,548.29,0.0084598,62.87,0.081474,supercritical,O2,C7782447,oxygen,154.58,50.43,13.6,0.07352941176470588,1.1,4.918897481657743,0.0005316104
170.04,249.43,25614.0,3.904e-05,-0.53867,0.43512,125.15,25.346,56.959,549.72,0.0080674,63.041,0.08165,supercritical,O2,C7782447,oxygen,154.58,50.43,13.6,0.07352941176470588,1.1,4.946063850882411,0.000530944
170.04,250.79,25646.0,3.8992e-05,-0.5434,0.43451,125.12,25.349,56.861,551.14,0.00768,63.211,0.081826,supercritical,O2,C7782447,oxygen,154.58,50.43,13.6,0.07352941176470588,1.1,4.973031925441205,0.0005302912
170.04,252.16,25677.0,3.8945e-05,-0.5481,0.43393,125.08,25.353,56.765,552.56,0.0072975,63.381,0.082002,supercritical,O2,C7782447,oxygen,154.58,50.43,13.6,0.07352941176470588,1.1,5.000198294665873,0.000529652
170.04,253.53,25709.0,3.8897e-05,-0.55277,0.43338,125.05,25.357,56.67,553.96,0.00692,63.551,0.082176,supercritical,O2,C7782447,oxygen,154.58,50.43,13.6,0.07352941176470588,1.1,5.027364663890541,0.0005289991999999999
170.04,254.89,25740.0,3.8851e-05,-0.55741,0.43286,125.01,25.361,56.576,555.36,0.0065472,63.72,0.082351,supercritical,O2,C7782447,oxygen,154.58,50.43,13.6,0.07352941176470588,1.1,5.054332738449335,0.0005283735999999999
170.04,256.25,25770.0,3.8804e-05,-0.56201,0.43237,124.98,25.365,56.484,556.75,0.006179,63.888,0.082524,supercritical,O2,C7782447,oxygen,154.58,50.43,13.6,0.07352941176470588,1.1,5.08130081300813,0.0005277344