Temperature (K),Pressure (bar),Density (mol/m3),Volume (m3/mol),Internal Energy (kJ/mol),Enthalpy (kJ/mol),Entropy (J/mol*K),Cv (J/mol*K),Cp (J/mol*K),Sound Spd. (m/s),Joule-Thomson (K/bar),Viscosity (uPa*s),Therm. Cond. (W/m*K),Phase,substance,substance_id,substance_name,Tc,Pc,rhoc,Vmc,Tr,Pr,Vmr
278.24,133.41,6290.9,0.00015896,4.8185,6.9391,159.14,22.11,38.414,332.96,0.20299,23.539,0.032827,supercritical,O2,C7782447,oxygen,154.58,50.43,13.6,0.07352941176470588,1.8,2.645449137418203,0.002161856
278.24,134.77,6357.7,0.00015729,4.8087,6.9285,159.02,22.12,38.504,333.36,0.20175,23.601,0.032932,supercritical,O2,C7782447,oxygen,154.58,50.43,13.6,0.07352941176470588,1.8,2.672417211976998,0.002139144
278.24,136.13,6424.5,0.00015565,4.7989,6.9179,158.91,22.129,38.593,333.76,0.2005,23.663,0.033038,supercritical,O2,C7782447,oxygen,154.58,50.43,13.6,0.07352941176470588,1.8,2.699385286535792,0.0021168399999999996
278.24,137.5,6491.3,0.00015405,4.7891,6.9074,158.79,22.138,38.683,334.17,0.19926,23.726,0.033145,supercritical,O2,C7782447,oxygen,154.58,50.43,13.6,0.07352941176470588,1.8,2.72655165576046,0.00209508
278.24,138.87,6558.0,0.00015249,4.7794,6.8969,158.68,22.147,38.771,334.59,0.19801,23.789,0.033251,supercritical,O2,C7782447,oxygen,154.58,50.43,13.6,0.07352941176470588,1.8,2.753718024985128,0.002073864
278.24,140.23,6624.7,0.00015095,4.7696,6.8864,158.57,22.156,38.859,335.01,0.19676,23.852,0.033359,supercritical,O2,C7782447,oxygen,154.58,50.43,13.6,0.07352941176470588,1.8,2.780686099543922,0.00205292
278.24,141.59,6691.3,0.00014945,4.7599,6.876,158.46,22.165,38.947,335.44,0.19552,23.916,0.033467,supercritical,O2,C7782447,oxygen,154.58,50.43,13.6,0.07352941176470588,1.8,2.8076541741027166,0.00203252
278.24,142.96,6757.9,0.00014798,4.7502,6.8656,158.35,22.174,39.034,335.87,0.19428,23.981,0.033575,supercritical,O2,C7782447,oxygen,154.58,50.43,13.6,0.07352941176470588,1.8,2.8348205433273845,0.002012528
278.24,144.32,6824.4,0.00014653,4.7405,6.8553,158.24,22.183,39.12,336.31,0.19304,24.046,0.033684,supercritical,O2,C7782447,oxygen,154.58,50.43,13.6,0.07352941176470588,1.8,2.861788617886179,0.001992808
278.24,145.69,6890.9,0.00014512,4.7308,6.845,158.13,22.192,39.206,336.75,0.19179,24.111,0.033793,supercritical,O2,C7782447,oxygen,154.58,50.43,13.6,0.07352941176470588,1.8,2.888954987110847,0.001973632
278.24,147.06,6957.4,0.00014373,4.7211,6.8348,158.02,22.201,39.291,337.19,0.19055,24.177,0.033903,supercritical,O2,C7782447,oxygen,154.58,50.43,13.6,0.07352941176470588,1.8,2.916121356335515,0.001954728
278.24,148.42,7023.7,0.00014237,4.7114,6.8246,157.92,22.21,39.376,337.65,0.18931,24.243,0.034013,supercritical,O2,C7782447,oxygen,154.58,50.43,13.6,0.07352941176470588,1.8,2.9430894308943087,0.001936232
278.24,149.78,7090.0,0.00014104,4.7018,6.8144,157.81,22.219,39.46,338.11,0.18808,24.31,0.034124,supercritical,O2,C7782447,oxygen,154.58,50.43,13.6,0.07352941176470588,1.8,2.9700575054531035,0.0019181439999999999
278.24,151.15,7156.3,0.00013974,4.6922,6.8043,157.7,22.227,39.544,338.57,0.18684,24.377,0.034235,supercritical,O2,C7782447,oxygen,154.58,50.43,13.6,0.07352941176470588,1.8,2.9972238746777715,0.0019004639999999997
278.24,152.51,7222.4,0.00013846,4.6825,6.7942,157.6,22.236,39.627,339.04,0.18561,24.444,0.034346,supercritical,O2,C7782447,oxygen,154.58,50.43,13.6,0.07352941176470588,1.8,3.0241919492365654,0.001883056
278.24,153.88,7288.5,0.0001372,4.673,6.7842,157.5,22.244,39.709,339.51,0.18437,24.512,0.034458,supercritical,O2,C7782447,oxygen,154.58,50.43,13.6,0.07352941176470588,1.8,3.0513583184612334,0.0018659199999999999
278.24,155.25,7354.6,0.00013597,4.6634,6.7742,157.39,22.253,39.791,339.99,0.18314,24.581,0.03457,supercritical,O2,C7782447,oxygen,154.58,50.43,13.6,0.07352941176470588,1.8,3.0785246876859014,0.0018491919999999997
278.24,156.61,7420.5,0.00013476,4.6538,6.7643,157.29,22.261,39.872,340.47,0.18191,24.65,0.034683,supercritical,O2,C7782447,oxygen,154.58,50.43,13.6,0.07352941176470588,1.8,3.1054927622446957,0.0018327359999999997
278.24,157.97,7486.4,0.00013358,4.6443,6.7544,157.19,22.269,39.953,340.96,0.18069,24.719,0.034796,supercritical,O2,C7782447,oxygen,154.58,50.43,13.6,0.07352941176470588,1.8,3.13246083680349,0.0018166880000000001
278.24,159.34,7552.2,0.00013241,4.6348,6.7446,157.09,22.278,40.033,341.45,0.17946,24.788,0.03491,supercritical,O2,C7782447,oxygen,154.58,50.43,13.6,0.07352941176470588,1.8,3.159627206028158,0.0018007759999999998
278.24,160.71,7617.9,0.00013127,4.6253,6.7348,156.99,22.286,40.112,341.95,0.17824,24.858,0.035024,supercritical,O2,C7782447,oxygen,154.58,50.43,13.6,0.07352941176470588,1.8,3.186793575252826,0.001785272
278.24,162.07,7683.5,0.00013015,4.6158,6.7251,156.89,22.294,40.191,342.46,0.17702,24.929,0.035138,supercritical,O2,C7782447,oxygen,154.58,50.43,13.6,0.07352941176470588,1.8,3.21376164981162,0.0017700399999999999
278.24,163.44,7749.0,0.00012905,4.6063,6.7154,156.79,22.302,40.269,342.97,0.1758,25.0,0.035253,supercritical,O2,C7782447,oxygen,154.58,50.43,13.6,0.07352941176470588,1.8,3.240928019036288,0.0017550799999999998
278.24,164.8,7814.5,0.00012797,4.5969,6.7058,156.69,22.31,40.346,343.48,0.17459,25.071,0.035368,supercritical,O2,C7782447,oxygen,154.58,50.43,13.6,0.07352941176470588,1.8,3.2678960935950827,0.0017403920000000001
278.24,166.16,7879.8,0.00012691,4.5874,6.6962,156.6,22.318,40.422,344.0,0.17338,25.143,0.035484,supercritical,O2,C7782447,oxygen,154.58,50.43,13.6,0.07352941176470588,1.8,3.2948641681538766,0.0017259759999999997
278.24,167.53,7945.0,0.00012586,4.578,6.6866,156.5,22.326,40.498,344.52,0.17217,25.215,0.035599,supercritical,O2,C7782447,oxygen,154.58,50.43,13.6,0.07352941176470588,1.8,3.3220305373785446,0.0017116959999999997
278.24,168.9,8010.2,0.00012484,4.5686,6.6771,156.41,22.334,40.573,345.05,0.17096,25.287,0.035716,supercritical,O2,C7782447,oxygen,154.58,50.43,13.6,0.07352941176470588,1.8,3.3491969066032126,0.001697824
278.24,170.26,8075.2,0.00012384,4.5593,6.6677,156.31,22.342,40.648,345.59,0.16976,25.36,0.035832,supercritical,O2,C7782447,oxygen,154.58,50.43,13.6,0.07352941176470588,1.8,3.3761649811620065,0.001684224
278.24,171.62,8140.1,0.00012285,4.5499,6.6583,156.22,22.35,40.721,346.12,0.16856,25.433,0.035949,supercritical,O2,C7782447,oxygen,154.58,50.43,13.6,0.07352941176470588,1.8,3.4031330557208013,0.00167076
278.24,172.99,8205.0,0.00012188,4.5406,6.649,156.12,22.357,40.794,346.67,0.16736,25.507,0.036067,supercritical,O2,C7782447,oxygen,154.58,50.43,13.6,0.07352941176470588,1.8,3.4302994249454692,0.001657568
278.24,174.35,8269.7,0.00012092,4.5313,6.6397,156.03,22.365,40.867,347.22,0.16616,25.58,0.036184,supercritical,O2,C7782447,oxygen,154.58,50.43,13.6,0.07352941176470588,1.8,3.457267499504263,0.0016445119999999999
278.24,175.72,8334.3,0.00011999,4.522,6.6304,155.94,22.372,40.938,347.77,0.16497,25.655,0.036302,supercritical,O2,C7782447,oxygen,154.58,50.43,13.6,0.07352941176470588,1.8,3.484433868728931,0.0016318639999999998
278.24,177.09,8398.8,0.00011907,4.5128,6.6212,155.85,22.38,41.009,348.33,0.16378,25.729,0.036421,supercritical,O2,C7782447,oxygen,154.58,50.43,13.6,0.07352941176470588,1.8,3.511600237953599,0.001619352
278.24,178.45,8463.1,0.00011816,4.5035,6.6121,155.75,22.387,41.079,348.89,0.1626,25.804,0.036539,supercritical,O2,C7782447,oxygen,154.58,50.43,13.6,0.07352941176470588,1.8,3.538568312512393,0.0016069759999999998
278.24,179.81,8527.4,0.00011727,4.4943,6.603,155.66,22.395,41.149,349.45,0.16142,25.88,0.036658,supercritical,O2,C7782447,oxygen,154.58,50.43,13.6,0.07352941176470588,1.8,3.565536387071188,0.0015948719999999998
278.24,181.18,8591.5,0.00011639,4.4851,6.594,155.57,22.402,41.217,350.03,0.16024,25.955,0.036777,supercritical,O2,C7782447,oxygen,154.58,50.43,13.6,0.07352941176470588,1.8,3.592702756295856,0.001582904
278.24,182.54,8655.5,0.00011553,4.476,6.585,155.49,22.41,41.285,350.6,0.15907,26.031,0.036897,supercritical,O2,C7782447,oxygen,154.58,50.43,13.6,0.07352941176470588,1.8,3.6196708308546497,0.001571208
278.24,183.91,8719.4,0.00011469,4.4668,6.576,155.4,22.417,41.352,351.18,0.1579,26.107,0.037017,supercritical,O2,C7782447,oxygen,154.58,50.43,13.6,0.07352941176470588,1.8,3.6468372000793177,0.001559784
278.24,185.28,8783.1,0.00011385,4.4577,6.5671,155.31,22.424,41.419,351.77,0.15673,26.184,0.037137,supercritical,O2,C7782447,oxygen,154.58,50.43,13.6,0.07352941176470588,1.8,3.6740035693039856,0.00154836
278.24,186.64,8846.7,0.00011304,4.4486,6.5583,155.22,22.431,41.484,352.36,0.15557,26.261,0.037257,supercritical,O2,C7782447,oxygen,154.58,50.43,13.6,0.07352941176470588,1.8,3.70097164386278,0.001537344
278.24,188.0,8910.2,0.00011223,4.4395,6.5495,155.13,22.438,41.549,352.95,0.15441,26.338,0.037378,supercritical,O2,C7782447,oxygen,154.58,50.43,13.6,0.07352941176470588,1.8,3.7279397184215743,0.001526328
278.24,189.37,8973.5,0.00011144,4.4305,6.5408,155.05,22.445,41.613,353.55,0.15326,26.416,0.037499,supercritical,O2,C7782447,oxygen,154.58,50.43,13.6,0.07352941176470588,1.8,3.7551060876462423,0.001515584
278.24,190.74,9036.7,0.00011066,4.4214,6.5321,154.96,22.452,41.676,354.15,0.15211,26.493,0.03762,supercritical,O2,C7782447,oxygen,154.58,50.43,13.6,0.07352941176470588,1.8,3.7822724568709103,0.0015049759999999999
278.24,192.1,9099.8,0.00010989,4.4124,6.5235,154.88,22.459,41.739,354.76,0.15097,26.572,0.037741,supercritical,O2,C7782447,oxygen,154.58,50.43,13.6,0.07352941176470588,1.8,3.8092405314297046,0.001494504
278.24,193.47,9162.7,0.00010914,4.4035,6.5149,154.79,22.466,41.801,355.37,0.14982,26.65,0.037863,supercritical,O2,C7782447,oxygen,154.58,50.43,13.6,0.07352941176470588,1.8,3.836406900654372,0.0014843039999999999
278.24,194.83,9225.5,0.0001084,4.3945,6.5064,154.71,22.473,41.862,355.99,0.14869,26.729,0.037985,supercritical,O2,C7782447,oxygen,154.58,50.43,13.6,0.07352941176470588,1.8,3.863374975213167,0.00147424
278.24,196.19,9288.1,0.00010766,4.3856,6.4979,154.63,22.48,41.922,356.61,0.14756,26.808,0.038107,supercritical,O2,C7782447,oxygen,154.58,50.43,13.6,0.07352941176470588,1.8,3.8903430497719613,0.001464176
278.24,197.56,9350.6,0.00010695,4.3767,6.4895,154.54,22.486,41.981,357.23,0.14643,26.887,0.038229,supercritical,O2,C7782447,oxygen,154.58,50.43,13.6,0.07352941176470588,1.8,3.917509418996629,0.00145452
278.24,198.93,9412.9,0.00010624,4.3678,6.4811,154.46,22.493,42.04,357.86,0.14531,26.966,0.038352,supercritical,O2,C7782447,oxygen,154.58,50.43,13.6,0.07352941176470588,1.8,3.944675788221297,0.001444864
278.24,200.29,9475.1,0.00010554,4.359,6.4728,154.38,22.5,42.098,358.49,0.14419,27.046,0.038474,supercritical,O2,C7782447,oxygen,154.58,50.43,13.6,0.07352941176470588,1.8,3.971643862780091,0.0014353439999999999
278.24,201.66,9537.1,0.00010485,4.3501,6.4646,154.3,22.506,42.155,359.13,0.14307,27.126,0.038597,supercritical,O2,C7782447,oxygen,154.58,50.43,13.6,0.07352941176470588,1.8,3.998810232004759,0.00142596
278.24,203.02,9599.0,0.00010418,4.3413,6.4564,154.22,22.513,42.211,359.77,0.14196,27.206,0.03872,supercritical,O2,C7782447,oxygen,154.58,50.43,13.6,0.07352941176470588,1.8,4.025778306563554,0.0014168479999999998
278.24,204.38,9660.7,0.00010351,4.3326,6.4482,154.14,22.519,42.267,360.41,0.14086,27.286,0.038844,supercritical,O2,C7782447,oxygen,154.58,50.43,13.6,0.07352941176470588,1.8,4.052746381122348,0.001407736
278.24,205.75,9722.3,0.00010286,4.3238,6.4401,154.06,22.526,42.322,361.06,0.13976,27.367,0.038967,supercritical,O2,C7782447,oxygen,154.58,50.43,13.6,0.07352941176470588,1.8,4.079912750347016,0.001398896
278.24,207.12,9783.7,0.00010221,4.3151,6.4321,153.98,22.532,42.376,361.71,0.13866,27.448,0.03909,supercritical,O2,C7782447,oxygen,154.58,50.43,13.6,0.07352941176470588,1.8,4.107079119571684,0.001390056
278.24,208.48,9844.9,0.00010158,4.3064,6.4241,153.9,22.539,42.429,362.37,0.13757,27.529,0.039214,supercritical,O2,C7782447,oxygen,154.58,50.43,13.6,0.07352941176470588,1.8,4.134047194130478,0.001381488
278.24,209.84,9906.0,0.00010095,4.2978,6.4161,153.82,22.545,42.481,363.03,0.13649,27.61,0.039338,supercritical,O2,C7782447,oxygen,154.58,50.43,13.6,0.07352941176470588,1.8,4.1610152686892725,0.00137292
278.24,211.21,9966.9,0.00010033,4.2891,6.4082,153.74,22.551,42.533,363.69,0.13541,27.692,0.039462,supercritical,O2,C7782447,oxygen,154.58,50.43,13.6,0.07352941176470588,1.8,4.1881816379139405,0.0013644879999999999
278.24,212.57,10028.0,9.9724e-05,4.2805,6.4004,153.67,22.557,42.584,364.36,0.13433,27.774,0.039586,supercritical,O2,C7782447,oxygen,154.58,50.43,13.6,0.07352941176470588,1.8,4.215149712472734,0.0013562463999999999
278.24,213.94,10088.0,9.9125e-05,4.2719,6.3926,153.59,22.563,42.634,365.03,0.13326,27.856,0.03971,supercritical,O2,C7782447,oxygen,154.58,50.43,13.6,0.07352941176470588,1.8,4.242316081697402,0.0013480999999999999
278.24,215.31,10149.0,9.8535e-05,4.2634,6.3849,153.51,22.57,42.683,365.7,0.1322,27.938,0.039835,supercritical,O2,C7782447,oxygen,154.58,50.43,13.6,0.07352941176470588,1.8,4.26948245092207,0.001340076
278.24,216.67,10209.0,9.7954e-05,4.2548,6.3772,153.44,22.576,42.732,366.38,0.13114,28.02,0.039959,supercritical,O2,C7782447,oxygen,154.58,50.43,13.6,0.07352941176470588,1.8,4.296450525480864,0.0013321744
278.24,218.03,10269.0,9.7381e-05,4.2463,6.3696,153.36,22.582,42.78,367.06,0.13008,28.102,0.040083,supercritical,O2,C7782447,oxygen,154.58,50.43,13.6,0.07352941176470588,1.8,4.323418600039659,0.0013243816
278.24,219.4,10329.0,9.6816e-05,4.2379,6.362,153.29,22.588,42.827,367.75,0.12903,28.185,0.040208,supercritical,O2,C7782447,oxygen,154.58,50.43,13.6,0.07352941176470588,1.8,4.350584969264327,0.0013166976
278.24,220.76,10389.0,9.626e-05,4.2294,6.3545,153.21,22.594,42.873,368.44,0.12799,28.268,0.040333,supercritical,O2,C7782447,oxygen,154.58,50.43,13.6,0.07352941176470588,1.8,4.377553043823121,0.001309136
278.24,222.13,10448.0,9.5711e-05,4.221,6.347,153.14,22.599,42.919,369.13,0.12695,28.351,0.040458,supercritical,O2,C7782447,oxygen,154.58,50.43,13.6,0.07352941176470588,1.8,4.404719413047789,0.0013016696
278.24,223.5,10507.0,9.517e-05,4.2126,6.3396,153.06,22.605,42.964,369.82,0.12592,28.434,0.040582,supercritical,O2,C7782447,oxygen,154.58,50.43,13.6,0.07352941176470588,1.8,4.431885782272457,0.001294312
278.24,224.86,10567.0,9.4637e-05,4.2043,6.3323,152.99,22.611,43.008,370.52,0.12489,28.517,0.040707,supercritical,O2,C7782447,oxygen,154.58,50.43,13.6,0.07352941176470588,1.8,4.458853856831252,0.0012870631999999998
278.24,226.22,10626.0,9.4112e-05,4.1959,6.325,152.92,22.617,43.051,371.22,0.12387,28.6,0.040832,supercritical,O2,C7782447,oxygen,154.58,50.43,13.6,0.07352941176470588,1.8,4.485821931390046,0.0012799232
278.24,227.59,10684.0,9.3594e-05,4.1876,6.3177,152.85,22.623,43.094,371.93,0.12285,28.684,0.040957,supercritical,O2,C7782447,oxygen,154.58,50.43,13.6,0.07352941176470588,1.8,4.512988300614714,0.0012728784
278.24,228.96,10743.0,9.3083e-05,4.1793,6.3105,152.78,22.628,43.135,372.64,0.12184,28.768,0.041082,supercritical,O2,C7782447,oxygen,154.58,50.43,13.6,0.07352941176470588,1.8,4.5401546698393815,0.0012659288
278.24,230.32,10802.0,9.2579e-05,4.1711,6.3034,152.7,22.634,43.177,373.35,0.12083,28.851,0.041207,supercritical,O2,C7782447,oxygen,154.58,50.43,13.6,0.07352941176470588,1.8,4.5671227443981754,0.0012590744
278.24,231.69,10860.0,9.2082e-05,4.1629,6.2963,152.63,22.64,43.217,374.06,0.11983,28.935,0.041332,supercritical,O2,C7782447,oxygen,154.58,50.43,13.6,0.07352941176470588,1.8,4.594289113622843,0.0012523152
278.24,233.05,10918.0,9.1592e-05,4.1547,6.2892,152.56,22.645,43.257,374.78,0.11883,29.019,0.041457,supercritical,O2,C7782447,oxygen,154.58,50.43,13.6,0.07352941176470588,1.8,4.621257188181638,0.0012456512
278.24,234.41,10976.0,9.1108e-05,4.1465,6.2822,152.49,22.651,43.296,375.5,0.11784,29.103,0.041582,supercritical,O2,C7782447,oxygen,154.58,50.43,13.6,0.07352941176470588,1.8,4.648225262740432,0.0012390688
278.24,235.78,11034.0,9.0632e-05,4.1384,6.2753,152.42,22.656,43.334,376.22,0.11686,29.188,0.041708,supercritical,O2,C7782447,oxygen,154.58,50.43,13.6,0.07352941176470588,1.8,4.6753916319651,0.0012325951999999998
278.24,237.15,11091.0,9.0161e-05,4.1303,6.2684,152.35,22.662,43.371,376.95,0.11588,29.272,0.041833,supercritical,O2,C7782447,oxygen,154.58,50.43,13.6,0.07352941176470588,1.8,4.702558001189768,0.0012261896000000001
278.24,238.51,11149.0,8.9698e-05,4.1222,6.2616,152.29,22.667,43.408,377.68,0.1149,29.356,0.041958,supercritical,O2,C7782447,oxygen,154.58,50.43,13.6,0.07352941176470588,1.8,4.729526075748562,0.0012198927999999998
278.24,239.88,11206.0,8.924e-05,4.1142,6.2548,152.22,22.672,43.444,378.41,0.11393,29.441,0.042083,supercritical,O2,C7782447,oxygen,154.58,50.43,13.6,0.07352941176470588,1.8,4.75669244497323,0.0012136640000000001
278.24,241.24,11263.0,8.8788e-05,4.1061,6.2481,152.15,22.678,43.48,379.15,0.11297,29.525,0.042208,supercritical,O2,C7782447,oxygen,154.58,50.43,13.6,0.07352941176470588,1.8,4.783660519532025,0.0012075168000000001
278.24,242.6,11320.0,8.8343e-05,4.0981,6.2414,152.08,22.683,43.514,379.88,0.11201,29.61,0.042333,supercritical,O2,C7782447,oxygen,154.58,50.43,13.6,0.07352941176470588,1.8,4.810628594090819,0.0012014648
278.24,243.97,11376.0,8.7903e-05,4.0902,6.2348,152.02,22.688,43.548,380.62,0.11106,29.695,0.042458,supercritical,O2,C7782447,oxygen,154.58,50.43,13.6,0.07352941176470588,1.8,4.837794963315487,0.0011954808
278.24,245.34,11433.0,8.7469e-05,4.0822,6.2282,151.95,22.694,43.582,381.37,0.11011,29.78,0.042583,supercritical,O2,C7782447,oxygen,154.58,50.43,13.6,0.07352941176470588,1.8,4.864961332540155,0.0011895783999999999
278.24,246.7,11489.0,8.7041e-05,4.0743,6.2217,151.88,22.699,43.615,382.11,0.10917,29.864,0.042708,supercritical,O2,C7782447,oxygen,154.58,50.43,13.6,0.07352941176470588,1.8,4.8919294070989485,0.0011837576
278.24,248.06,11545.0,8.6619e-05,4.0665,6.2152,151.82,22.704,43.647,382.86,0.10824,29.949,0.042833,supercritical,O2,C7782447,oxygen,154.58,50.43,13.6,0.07352941176470588,1.8,4.918897481657743,0.0011780184
278.24,249.43,11601.0,8.6202e-05,4.0586,6.2088,151.75,22.709,43.678,383.61,0.10731,30.034,0.042957,supercritical,O2,C7782447,oxygen,154.58,50.43,13.6,0.07352941176470588,1.8,4.946063850882411,0.0011723471999999999
278.24,250.79,11656.0,8.579e-05,4.0508,6.2024,151.69,22.714,43.709,384.37,0.10638,30.119,0.043082,supercritical,O2,C7782447,oxygen,154.58,50.43,13.6,0.07352941176470588,1.8,4.973031925441205,0.001166744
278.24,252.16,11712.0,8.5384e-05,4.043,6.1961,151.62,22.719,43.739,385.12,0.10547,30.204,0.043207,supercritical,O2,C7782447,oxygen,154.58,50.43,13.6,0.07352941176470588,1.8,5.000198294665873,0.0011612223999999999
278.24,253.53,11767.0,8.4983e-05,4.0353,6.1898,151.56,22.724,43.768,385.88,0.10455,30.29,0.043332,supercritical,O2,C7782447,oxygen,154.58,50.43,13.6,0.07352941176470588,1.8,5.027364663890541,0.0011557688
278.24,254.89,11822.0,8.4587e-05,4.0275,6.1836,151.49,22.729,43.797,386.64,0.10364,30.375,0.043456,supercritical,O2,C7782447,oxygen,154.58,50.43,13.6,0.07352941176470588,1.8,5.054332738449335,0.0011503832
278.24,256.25,11877.0,8.4196e-05,4.0198,6.1774,151.43,22.734,43.825,387.4,0.10274,30.46,0.043581,supercritical,O2,C7782447,oxygen,154.58,50.43,13.6,0.07352941176470588,1.8,5.08130081300813,0.0011450656
278.24,257.62,11932.0,8.381e-05,4.0122,6.1713,151.37,22.739,43.853,388.17,0.10185,30.545,0.043705,supercritical,O2,C7782447,oxygen,154.58,50.43,13.6,0.07352941176470588,1.8,5.108467182232798,0.0011398159999999999
278.24,258.99,11986.0,8.3429e-05,4.0045,6.1652,151.3,22.744,43.879,388.93,0.10095,30.63,0.043829,supercritical,O2,C7782447,oxygen,154.58,50.43,13.6,0.07352941176470588,1.8,5.135633551457466,0.0011346344
278.24,260.35,12041.0,8.3053e-05,3.9969,6.1592,151.24,22.749,43.906,389.7,0.10007,30.716,0.043953,supercritical,O2,C7782447,oxygen,154.58,50.43,13.6,0.07352941176470588,1.8,5.162601626016261,0.0011295208
278.24,261.71,12095.0,8.2681e-05,3.9893,6.1532,151.18,22.754,43.931,390.47,0.099189,30.801,0.044077,supercritical,O2,C7782447,oxygen,154.58,50.43,13.6,0.07352941176470588,1.8,5.1895697005750545,0.0011244616