Temperature (K),Pressure (bar),Density (mol/m3),Volume (m3/mol),Internal Energy (kJ/mol),Enthalpy (kJ/mol),Entropy (J/mol*K),Cv (J/mol*K),Cp (J/mol*K),Sound Spd. (m/s),Joule-Thomson (K/bar),Viscosity (uPa*s),Therm. Cond. (W/m*K),Phase,substance,substance_id,substance_name,Tc,Pc,rhoc,Vmc,Tr,Pr,Vmr
1229.3,3.0,29.359,0.034061,71.461,81.679,169.09,35.818,44.157,836.11,0.13019,46.277,0.12775,vapor,H2O,C7732185,water,647.0,220.64,17.9,0.0558659217877095,1.9,0.01359680928208847,0.6096919
1229.3,10.348,101.33,0.0098685,71.424,81.637,158.77,35.852,44.25,836.09,0.13001,46.308,0.1284,vapor,H2O,C7732185,water,647.0,220.64,17.9,0.0558659217877095,1.9,0.04689992748368384,0.17664615
1229.3,17.697,173.39,0.0057672,71.388,81.594,154.28,35.886,44.343,836.07,0.12982,46.34,0.12905,vapor,H2O,C7732185,water,647.0,220.64,17.9,0.0558659217877095,1.9,0.08020757795503988,0.10323288
1229.3,25.045,245.54,0.0040726,71.352,81.552,151.36,35.92,44.437,836.05,0.12963,46.372,0.1297,vapor,H2O,C7732185,water,647.0,220.64,17.9,0.0558659217877095,1.9,0.11351069615663525,0.07289954
1229.3,32.393,317.77,0.0031469,71.316,81.51,149.19,35.954,44.53,836.04,0.12944,46.405,0.13036,vapor,H2O,C7732185,water,647.0,220.64,17.9,0.0558659217877095,1.9,0.14681381435823063,0.05632950999999999
1229.3,39.742,390.09,0.0025635,71.28,81.467,147.46,35.988,44.624,836.03,0.12924,46.438,0.13102,vapor,H2O,C7732185,water,647.0,220.64,17.9,0.0558659217877095,1.9,0.18012146482958666,0.045886649999999994
1229.3,47.09,462.5,0.0021622,71.243,81.425,146.02,36.022,44.719,836.02,0.12903,46.472,0.13169,vapor,H2O,C7732185,water,647.0,220.64,17.9,0.0558659217877095,1.9,0.21342458303118206,0.038703379999999996
1229.3,54.438,535.0,0.0018692,71.207,81.383,144.79,36.056,44.813,836.01,0.12882,46.506,0.13236,vapor,H2O,C7732185,water,647.0,220.64,17.9,0.0558659217877095,1.9,0.2467277012327774,0.03345868
1229.3,61.787,607.58,0.0016459,71.171,81.34,143.71,36.089,44.908,836.01,0.12861,46.541,0.13303,vapor,H2O,C7732185,water,647.0,220.64,17.9,0.0558659217877095,1.9,0.28003535170413346,0.02946161
1229.3,69.135,680.24,0.0014701,71.134,81.298,142.74,36.123,45.003,836.01,0.12839,46.576,0.1337,vapor,H2O,C7732185,water,647.0,220.64,17.9,0.0558659217877095,1.9,0.31333846990572883,0.026314789999999998
1229.3,76.483,752.99,0.001328,71.098,81.255,141.87,36.157,45.099,836.01,0.12816,46.612,0.13438,vapor,H2O,C7732185,water,647.0,220.64,17.9,0.0558659217877095,1.9,0.3466415881073242,0.0237712
1229.3,83.832,825.83,0.0012109,71.062,81.213,141.08,36.19,45.194,836.01,0.12793,46.648,0.13507,vapor,H2O,C7732185,water,647.0,220.64,17.9,0.0558659217877095,1.9,0.3799492385786802,0.021675109999999997
1229.3,91.18,898.76,0.0011126,71.025,81.17,140.35,36.224,45.29,836.02,0.1277,46.684,0.13575,vapor,H2O,C7732185,water,647.0,220.64,17.9,0.0558659217877095,1.9,0.4132523567802756,0.01991554
1229.3,98.528,971.77,0.0010291,70.989,81.128,139.68,36.258,45.386,836.03,0.12746,46.721,0.13644,vapor,H2O,C7732185,water,647.0,220.64,17.9,0.0558659217877095,1.9,0.446555474981871,0.01842089
1229.3,105.88,1044.9,0.00095707,70.952,81.085,139.05,36.291,45.483,836.04,0.12721,46.758,0.13714,vapor,H2O,C7732185,water,647.0,220.64,17.9,0.0558659217877095,1.9,0.47987672226250905,0.017131552999999997
1229.3,113.23,1118.0,0.00089442,70.916,81.043,138.46,36.325,45.579,836.06,0.12696,46.796,0.13783,vapor,H2O,C7732185,water,647.0,220.64,17.9,0.0558659217877095,1.9,0.5131889050036259,0.016010118
1229.3,120.57,1191.3,0.00083942,70.879,81.0,137.91,36.358,45.676,836.08,0.12671,46.834,0.13854,vapor,H2O,C7732185,water,647.0,220.64,17.9,0.0558659217877095,1.9,0.5464557650471356,0.015025618
1229.3,127.92,1264.6,0.00079073,70.842,80.958,137.39,36.392,45.773,836.1,0.12645,46.873,0.13924,vapor,H2O,C7732185,water,647.0,220.64,17.9,0.0558659217877095,1.9,0.5797679477882524,0.014154067
1229.3,135.27,1338.1,0.00074734,70.806,80.915,136.9,36.425,45.87,836.13,0.12619,46.912,0.13995,vapor,H2O,C7732185,water,647.0,220.64,17.9,0.0558659217877095,1.9,0.6130801305293692,0.013377385999999998
1229.3,142.62,1411.6,0.00070842,70.769,80.873,136.43,36.458,45.967,836.17,0.12592,46.951,0.14066,vapor,H2O,C7732185,water,647.0,220.64,17.9,0.0558659217877095,1.9,0.646392313270486,0.012680717999999999
1229.3,149.97,1485.2,0.00067331,70.733,80.83,135.98,36.492,46.065,836.2,0.12565,46.991,0.14137,vapor,H2O,C7732185,water,647.0,220.64,17.9,0.0558659217877095,1.9,0.6797044960116027,0.012052249
1229.3,157.32,1558.9,0.00064149,70.696,80.787,135.55,36.525,46.163,836.24,0.12537,47.032,0.14209,vapor,H2O,C7732185,water,647.0,220.64,17.9,0.0558659217877095,1.9,0.7130166787527193,0.011482671
1229.3,164.66,1632.6,0.00061251,70.659,80.745,135.14,36.558,46.261,836.29,0.12509,47.072,0.14281,vapor,H2O,C7732185,water,647.0,220.64,17.9,0.0558659217877095,1.9,0.7462835387962292,0.010963928999999999
1229.3,172.01,1706.5,0.000586,70.622,80.702,134.75,36.591,46.359,836.34,0.12481,47.113,0.14354,vapor,H2O,C7732185,water,647.0,220.64,17.9,0.0558659217877095,1.9,0.7795957215373459,0.0104894
1229.3,179.36,1780.4,0.00056167,70.586,80.66,134.37,36.624,46.457,836.39,0.12452,47.155,0.14427,vapor,H2O,C7732185,water,647.0,220.64,17.9,0.0558659217877095,1.9,0.8129079042784627,0.010053893
1229.3,186.71,1854.4,0.00053926,70.549,80.617,134.01,36.657,46.555,836.45,0.12423,47.197,0.145,vapor,H2O,C7732185,water,647.0,220.64,17.9,0.0558659217877095,1.9,0.8462200870195795,0.009652753999999998
1229.3,194.06,1928.5,0.00051854,70.512,80.575,133.66,36.69,46.654,836.51,0.12393,47.239,0.14573,vapor,H2O,C7732185,water,647.0,220.64,17.9,0.0558659217877095,1.9,0.8795322697606962,0.009281865999999998
1229.3,201.41,2002.6,0.00049934,70.475,80.532,133.32,36.723,46.753,836.58,0.12363,47.282,0.14647,vapor,H2O,C7732185,water,647.0,220.64,17.9,0.0558659217877095,1.9,0.9128444525018129,0.008938186
1229.3,208.75,2076.9,0.00048149,70.439,80.49,132.99,36.756,46.852,836.66,0.12333,47.325,0.14722,vapor,H2O,C7732185,water,647.0,220.64,17.9,0.0558659217877095,1.9,0.9461113125453228,0.008618671
1229.3,216.1,2151.2,0.00046486,70.402,80.448,132.67,36.789,46.951,836.73,0.12302,47.368,0.14796,vapor,H2O,C7732185,water,647.0,220.64,17.9,0.0558659217877095,1.9,0.9794234952864395,0.008320994
1229.3,223.45,2225.6,0.00044932,70.365,80.405,132.37,36.822,47.05,836.82,0.1227,47.412,0.14871,vapor,H2O,C7732185,water,647.0,220.64,17.9,0.0558659217877095,1.9,1.0127356780275563,0.008042828
1229.3,223.45,2225.6,0.00044932,70.365,80.405,132.37,36.822,47.05,836.82,0.1227,47.412,0.14871,supercritical,H2O,C7732185,water,647.0,220.64,17.9,0.0558659217877095,1.9,1.0127356780275563,0.008042828
1229.3,230.8,2300.0,0.00043477,70.328,80.363,132.07,36.855,47.149,836.91,0.12239,47.456,0.14946,supercritical,H2O,C7732185,water,647.0,220.64,17.9,0.0558659217877095,1.9,1.0460478607686732,0.0077823829999999995
1229.3,238.15,2374.6,0.00042113,70.291,80.32,131.78,36.887,47.249,837.0,0.12207,47.501,0.15022,supercritical,H2O,C7732185,water,647.0,220.64,17.9,0.0558659217877095,1.9,1.0793600435097899,0.007538226999999999
1229.3,245.49,2449.2,0.0004083,70.254,80.278,131.49,36.92,47.348,837.1,0.12174,47.546,0.15098,supercritical,H2O,C7732185,water,647.0,220.64,17.9,0.0558659217877095,1.9,1.1126269035532996,0.0073085699999999995
1229.3,252.84,2523.9,0.00039621,70.218,80.236,131.22,36.953,47.448,837.2,0.12141,47.591,0.15174,supercritical,H2O,C7732185,water,647.0,220.64,17.9,0.0558659217877095,1.9,1.1459390862944163,0.007092158999999999
1229.3,260.19,2598.6,0.00038482,70.181,80.193,130.95,36.985,47.547,837.31,0.12108,47.637,0.15251,supercritical,H2O,C7732185,water,647.0,220.64,17.9,0.0558659217877095,1.9,1.179251269035533,0.006888278
1229.3,267.54,2673.5,0.00037404,70.144,80.151,130.69,37.018,47.647,837.43,0.12075,47.683,0.15328,supercritical,H2O,C7732185,water,647.0,220.64,17.9,0.0558659217877095,1.9,1.21256345177665,0.006695316
1229.3,274.89,2748.4,0.00036385,70.107,80.109,130.44,37.05,47.747,837.55,0.12041,47.729,0.15405,supercritical,H2O,C7732185,water,647.0,220.64,17.9,0.0558659217877095,1.9,1.2458756345177666,0.006512914999999999
1229.3,282.24,2823.3,0.00035419,70.07,80.066,130.19,37.082,47.847,837.68,0.12007,47.776,0.15482,supercritical,H2O,C7732185,water,647.0,220.64,17.9,0.0558659217877095,1.9,1.2791878172588833,0.006340001
1229.3,289.58,2898.4,0.00034502,70.033,80.024,129.94,37.115,47.947,837.81,0.11972,47.823,0.1556,supercritical,H2O,C7732185,water,647.0,220.64,17.9,0.0558659217877095,1.9,1.312454677302393,0.006175857999999999
1229.3,296.93,2973.5,0.00033631,69.996,79.982,129.71,37.147,48.047,837.95,0.11937,47.87,0.15638,supercritical,H2O,C7732185,water,647.0,220.64,17.9,0.0558659217877095,1.9,1.34576686004351,0.006019948999999999
1229.3,304.28,3048.7,0.00032801,69.959,79.94,129.47,37.179,48.148,838.1,0.11902,47.918,0.15717,supercritical,H2O,C7732185,water,647.0,220.64,17.9,0.0558659217877095,1.9,1.3790790427846265,0.0058713789999999995
1229.3,311.63,3123.9,0.00032011,69.922,79.898,129.25,37.211,48.248,838.25,0.11866,47.966,0.15796,supercritical,H2O,C7732185,water,647.0,220.64,17.9,0.0558659217877095,1.9,1.4123912255257434,0.005729969
1229.3,318.98,3199.2,0.00031258,69.885,79.856,129.02,37.243,48.348,838.41,0.11831,48.015,0.15875,supercritical,H2O,C7732185,water,647.0,220.64,17.9,0.0558659217877095,1.9,1.4457034082668603,0.005595182
1229.3,326.33,3274.6,0.00030539,69.848,79.814,128.8,37.275,48.448,838.57,0.11794,48.063,0.15954,supercritical,H2O,C7732185,water,647.0,220.64,17.9,0.0558659217877095,1.9,1.4790155910079767,0.005466481
1229.3,333.67,3350.0,0.00029851,69.811,79.772,128.59,37.307,48.549,838.75,0.11758,48.112,0.16034,supercritical,H2O,C7732185,water,647.0,220.64,17.9,0.0558659217877095,1.9,1.5122824510514867,0.005343328999999999
1229.3,341.02,3425.5,0.00029193,69.774,79.73,128.38,37.338,48.649,838.92,0.11721,48.162,0.16114,supercritical,H2O,C7732185,water,647.0,220.64,17.9,0.0558659217877095,1.9,1.5455946337926034,0.005225547
1229.3,348.37,3501.0,0.00028563,69.737,79.688,128.17,37.37,48.749,839.11,0.11684,48.211,0.16195,supercritical,H2O,C7732185,water,647.0,220.64,17.9,0.0558659217877095,1.9,1.5789068165337201,0.005112777
1229.3,355.72,3576.6,0.00027959,69.7,79.646,127.97,37.402,48.85,839.3,0.11647,48.261,0.16275,supercritical,H2O,C7732185,water,647.0,220.64,17.9,0.0558659217877095,1.9,1.612218999274837,0.0050046610000000005
1229.3,363.07,3652.3,0.0002738,69.664,79.604,127.77,37.433,48.95,839.49,0.11609,48.312,0.16356,supercritical,H2O,C7732185,water,647.0,220.64,17.9,0.0558659217877095,1.9,1.6455311820159537,0.00490102
1229.3,370.42,3728.0,0.00026824,69.627,79.563,127.57,37.465,49.051,839.7,0.11571,48.362,0.16438,supercritical,H2O,C7732185,water,647.0,220.64,17.9,0.0558659217877095,1.9,1.6788433647570704,0.004801496
1229.3,377.76,3803.7,0.0002629,69.59,79.521,127.38,37.496,49.151,839.91,0.11533,48.413,0.16519,supercritical,H2O,C7732185,water,647.0,220.64,17.9,0.0558659217877095,1.9,1.7121102248005802,0.00470591
1229.3,385.11,3879.6,0.00025776,69.553,79.479,127.19,37.528,49.251,840.12,0.11495,48.464,0.16601,supercritical,H2O,C7732185,water,647.0,220.64,17.9,0.0558659217877095,1.9,1.745422407541697,0.004613903999999999
1229.3,392.46,3955.4,0.00025282,69.516,79.438,127.0,37.559,49.352,840.35,0.11456,48.516,0.16683,supercritical,H2O,C7732185,water,647.0,220.64,17.9,0.0558659217877095,1.9,1.7787345902828136,0.0045254779999999994
1229.3,399.81,4031.4,0.00024806,69.479,79.396,126.82,37.59,49.452,840.58,0.11417,48.568,0.16766,supercritical,H2O,C7732185,water,647.0,220.64,17.9,0.0558659217877095,1.9,1.8120467730239305,0.004440273999999999
1229.3,407.16,4107.3,0.00024347,69.442,79.355,126.64,37.621,49.552,840.81,0.11378,48.62,0.16849,supercritical,H2O,C7732185,water,647.0,220.64,17.9,0.0558659217877095,1.9,1.8453589557650474,0.004358112999999999
1229.3,414.51,4183.3,0.00023904,69.405,79.313,126.46,37.652,49.652,841.06,0.11339,48.672,0.16932,supercritical,H2O,C7732185,water,647.0,220.64,17.9,0.0558659217877095,1.9,1.8786711385061639,0.0042788159999999995
1229.3,421.86,4259.4,0.00023477,69.368,79.272,126.29,37.683,49.752,841.31,0.11299,48.725,0.17015,supercritical,H2O,C7732185,water,647.0,220.64,17.9,0.0558659217877095,1.9,1.9119833212472808,0.004202383
1229.3,429.2,4335.5,0.00023065,69.331,79.231,126.11,37.714,49.853,841.56,0.11259,48.777,0.17099,supercritical,H2O,C7732185,water,647.0,220.64,17.9,0.0558659217877095,1.9,1.9452501812907905,0.004128634999999999
1229.3,436.55,4411.7,0.00022667,69.294,79.19,125.94,37.745,49.953,841.83,0.11219,48.831,0.17182,supercritical,H2O,C7732185,water,647.0,220.64,17.9,0.0558659217877095,1.9,1.9785623640319074,0.004057392999999999
1229.3,443.9,4487.9,0.00022282,69.257,79.148,125.78,37.776,50.052,842.1,0.11179,48.884,0.17267,supercritical,H2O,C7732185,water,647.0,220.64,17.9,0.0558659217877095,1.9,2.011874546773024,0.003988478
1229.3,451.25,4564.1,0.0002191,69.22,79.107,125.61,37.806,50.152,842.38,0.11138,48.938,0.17351,supercritical,H2O,C7732185,water,647.0,220.64,17.9,0.0558659217877095,1.9,2.045186729514141,0.00392189
1229.3,458.6,4640.4,0.0002155,69.184,79.066,125.45,37.837,50.252,842.67,0.11098,48.991,0.17436,supercritical,H2O,C7732185,water,647.0,220.64,17.9,0.0558659217877095,1.9,2.0784989122552577,0.0038574499999999997
1229.3,465.95,4716.7,0.00021201,69.147,79.025,125.29,37.867,50.352,842.96,0.11057,49.046,0.17521,supercritical,H2O,C7732185,water,647.0,220.64,17.9,0.0558659217877095,1.9,2.111811094996374,0.0037949789999999995
1229.3,473.29,4793.0,0.00020864,69.11,78.985,125.13,37.898,50.451,843.26,0.11016,49.1,0.17606,supercritical,H2O,C7732185,water,647.0,220.64,17.9,0.0558659217877095,1.9,2.145077955039884,0.003734656
1229.3,480.64,4869.4,0.00020536,69.073,78.944,124.97,37.928,50.551,843.57,0.10974,49.155,0.17691,supercritical,H2O,C7732185,water,647.0,220.64,17.9,0.0558659217877095,1.9,2.1783901377810007,0.0036759439999999996
1229.3,487.99,4945.8,0.00020219,69.036,78.903,124.82,37.958,50.65,843.88,0.10933,49.21,0.17777,supercritical,H2O,C7732185,water,647.0,220.64,17.9,0.0558659217877095,1.9,2.2117023205221176,0.0036192009999999994
1229.3,495.34,5022.3,0.00019911,69.0,78.862,124.66,37.988,50.749,844.2,0.10891,49.265,0.17863,supercritical,H2O,C7732185,water,647.0,220.64,17.9,0.0558659217877095,1.9,2.245014503263234,0.003564069
1229.3,502.69,5098.7,0.00019613,68.963,78.822,124.51,38.018,50.848,844.53,0.1085,49.32,0.17949,supercritical,H2O,C7732185,water,647.0,220.64,17.9,0.0558659217877095,1.9,2.278326686004351,0.003510727
1229.3,510.04,5175.2,0.00019323,68.926,78.781,124.36,38.048,50.947,844.87,0.10808,49.376,0.18036,supercritical,H2O,C7732185,water,647.0,220.64,17.9,0.0558659217877095,1.9,2.311638868745468,0.0034588169999999994
1229.3,517.38,5251.8,0.00019041,68.889,78.741,124.21,38.078,51.046,845.21,0.10766,49.431,0.18122,supercritical,H2O,C7732185,water,647.0,220.64,17.9,0.0558659217877095,1.9,2.344905728788978,0.0034083389999999994
1229.3,524.73,5328.3,0.00018768,68.853,78.701,124.07,38.108,51.144,845.56,0.10723,49.487,0.18209,supercritical,H2O,C7732185,water,647.0,220.64,17.9,0.0558659217877095,1.9,2.3782179115300943,0.0033594719999999996
1229.3,532.08,5404.9,0.00018502,68.816,78.66,123.92,38.137,51.243,845.92,0.10681,49.544,0.18296,supercritical,H2O,C7732185,water,647.0,220.64,17.9,0.0558659217877095,1.9,2.4115300942712112,0.0033118579999999996
1229.3,539.43,5481.5,0.00018243,68.779,78.62,123.78,38.167,51.341,846.29,0.10639,49.6,0.18384,supercritical,H2O,C7732185,water,647.0,220.64,17.9,0.0558659217877095,1.9,2.4448422770123277,0.0032654969999999996
1229.3,546.78,5558.1,0.00017992,68.743,78.58,123.64,38.196,51.439,846.66,0.10596,49.657,0.18471,supercritical,H2O,C7732185,water,647.0,220.64,17.9,0.0558659217877095,1.9,2.4781544597534446,0.0032205679999999996
1229.3,554.13,5634.8,0.00017747,68.706,78.54,123.5,38.226,51.537,847.04,0.10553,49.714,0.18559,supercritical,H2O,C7732185,water,647.0,220.64,17.9,0.0558659217877095,1.9,2.5114666424945615,0.003176713
1229.3,561.47,5711.4,0.00017509,68.669,78.5,123.36,38.255,51.635,847.43,0.1051,49.771,0.18647,supercritical,H2O,C7732185,water,647.0,220.64,17.9,0.0558659217877095,1.9,2.5447335025380715,0.0031341109999999998
1229.3,568.82,5788.1,0.00017277,68.633,78.46,123.23,38.284,51.733,847.82,0.10467,49.828,0.18735,supercritical,H2O,C7732185,water,647.0,220.64,17.9,0.0558659217877095,1.9,2.578045685279188,0.0030925829999999994
1229.3,576.17,5864.8,0.00017051,68.596,78.42,123.09,38.313,51.83,848.22,0.10424,49.885,0.18824,supercritical,H2O,C7732185,water,647.0,220.64,17.9,0.0558659217877095,1.9,2.6113578680203045,0.0030521289999999998
1229.3,583.52,5941.5,0.00016831,68.56,78.381,122.96,38.342,51.927,848.63,0.10381,49.943,0.18912,supercritical,H2O,C7732185,water,647.0,220.64,17.9,0.0558659217877095,1.9,2.6446700507614214,0.003012749
1229.3,590.87,6018.2,0.00016616,68.523,78.341,122.83,38.371,52.024,849.05,0.10338,50.001,0.19001,supercritical,H2O,C7732185,water,647.0,220.64,17.9,0.0558659217877095,1.9,2.6779822335025383,0.002974264
1229.3,598.22,6094.9,0.00016407,68.487,78.302,122.7,38.4,52.121,849.47,0.10295,50.059,0.1909,supercritical,H2O,C7732185,water,647.0,220.64,17.9,0.0558659217877095,1.9,2.711294416243655,0.0029368529999999997
1229.3,605.56,6171.6,0.00016203,68.45,78.262,122.57,38.429,52.217,849.91,0.10251,50.117,0.1918,supercritical,H2O,C7732185,water,647.0,220.64,17.9,0.0558659217877095,1.9,2.7445612762871647,0.002900337
1229.3,612.91,6248.4,0.00016004,68.414,78.223,122.44,38.458,52.313,850.35,0.10208,50.175,0.19269,supercritical,H2O,C7732185,water,647.0,220.64,17.9,0.0558659217877095,1.9,2.777873459028281,0.002864716
1229.3,620.26,6325.1,0.0001581,68.378,78.184,122.31,38.486,52.409,850.79,0.10164,50.234,0.19359,supercritical,H2O,C7732185,water,647.0,220.64,17.9,0.0558659217877095,1.9,2.811185641769398,0.0028299899999999997
1229.3,627.61,6401.8,0.00015621,68.341,78.145,122.19,38.514,52.505,851.25,0.10121,50.293,0.19449,supercritical,H2O,C7732185,water,647.0,220.64,17.9,0.0558659217877095,1.9,2.844497824510515,0.002796159
1229.3,634.96,6478.6,0.00015436,68.305,78.106,122.06,38.543,52.601,851.71,0.10077,50.351,0.19539,supercritical,H2O,C7732185,water,647.0,220.64,17.9,0.0558659217877095,1.9,2.877810007251632,0.002763044
1229.3,642.31,6555.3,0.00015255,68.269,78.067,121.94,38.571,52.696,852.17,0.10033,50.41,0.19629,supercritical,H2O,C7732185,water,647.0,220.64,17.9,0.0558659217877095,1.9,2.9111221899927484,0.002730645
1229.3,649.65,6632.0,0.00015078,68.232,78.028,121.82,38.599,52.791,852.65,0.099893,50.47,0.19719,supercritical,H2O,C7732185,water,647.0,220.64,17.9,0.0558659217877095,1.9,2.9443890500362584,0.0026989619999999996
1229.3,657.0,6708.8,0.00014906,68.196,77.989,121.69,38.627,52.886,853.13,0.099454,50.529,0.1981,supercritical,H2O,C7732185,water,647.0,220.64,17.9,0.0558659217877095,1.9,2.9777012327773753,0.002668174
1229.3,664.35,6785.5,0.00014737,68.16,77.951,121.57,38.655,52.98,853.62,0.099015,50.589,0.199,supercritical,H2O,C7732185,water,647.0,220.64,17.9,0.0558659217877095,1.9,3.0110134155184918,0.002637923
1229.3,671.7,6862.2,0.00014573,68.124,77.912,121.46,38.683,53.074,854.12,0.098576,50.648,0.19991,supercritical,H2O,C7732185,water,647.0,220.64,17.9,0.0558659217877095,1.9,3.0443255982596087,0.002608567
1229.3,679.05,6938.9,0.00014411,68.088,77.874,121.34,38.711,53.168,854.62,0.098137,50.708,0.20082,supercritical,H2O,C7732185,water,647.0,220.64,17.9,0.0558659217877095,1.9,3.077637781000725,0.002579569
1229.3,686.4,7015.6,0.00014254,68.052,77.836,121.22,38.738,53.262,855.14,0.097697,50.768,0.20173,supercritical,H2O,C7732185,water,647.0,220.64,17.9,0.0558659217877095,1.9,3.110949963741842,0.002551466
1229.3,693.74,7092.3,0.000141,68.016,77.797,121.11,38.766,53.355,855.66,0.097257,50.828,0.20265,supercritical,H2O,C7732185,water,647.0,220.64,17.9,0.0558659217877095,1.9,3.144216823785352,0.0025239
1229.3,701.09,7169.0,0.00013949,67.98,77.759,120.99,38.793,53.448,856.18,0.096816,50.888,0.20356,supercritical,H2O,C7732185,water,647.0,220.64,17.9,0.0558659217877095,1.9,3.177529006526469,0.002496871