Temperature (K),Pressure (bar),Density (mol/m3),Volume (m3/mol),Internal Energy (kJ/mol),Enthalpy (kJ/mol),Entropy (J/mol*K),Cv (J/mol*K),Cp (J/mol*K),Sound Spd. (m/s),Joule-Thomson (K/bar),Viscosity (uPa*s),Therm. Cond. (W/m*K),Phase,substance,substance_id,substance_name,Tc,Pc,rhoc,Vmc,Tr,Pr,Vmr
582.3,1325.7,46459.0,2.1524e-05,21.977,24.831,54.751,53.387,77.114,1451.7,-0.0076759,112.94,0.68465,liquid,H2O,C7732185,water,647.0,220.64,17.9,0.0558659217877095,0.9000000000000001,6.008430021754895,0.00038527959999999997
582.3,1333.0,46487.0,2.1511e-05,21.968,24.835,54.731,53.385,77.063,1453.9,-0.0077334,113.07,0.68532,liquid,H2O,C7732185,water,647.0,220.64,17.9,0.0558659217877095,0.9000000000000001,6.041515591007977,0.0003850469
582.3,1340.4,46515.0,2.1498e-05,21.958,24.84,54.712,53.384,77.012,1456.0,-0.0077904,113.2,0.68599,liquid,H2O,C7732185,water,647.0,220.64,17.9,0.0558659217877095,0.9000000000000001,6.075054387237129,0.0003848142
582.3,1347.7,46543.0,2.1486e-05,21.948,24.844,54.692,53.382,76.962,1458.1,-0.007847,113.33,0.68665,liquid,H2O,C7732185,water,647.0,220.64,17.9,0.0558659217877095,0.9000000000000001,6.108139956490211,0.0003845994
582.3,1355.1,46570.0,2.1473e-05,21.939,24.849,54.673,53.381,76.912,1460.2,-0.0079032,113.46,0.68732,liquid,H2O,C7732185,water,647.0,220.64,17.9,0.0558659217877095,0.9000000000000001,6.141678752719362,0.00038436669999999994
582.3,1362.4,46598.0,2.146e-05,21.929,24.853,54.653,53.379,76.863,1462.3,-0.0079589,113.59,0.68798,liquid,H2O,C7732185,water,647.0,220.64,17.9,0.0558659217877095,0.9000000000000001,6.174764321972445,0.000384134
582.3,1369.8,46625.0,2.1448e-05,21.92,24.858,54.634,53.378,76.814,1464.4,-0.0080141,113.72,0.68864,liquid,H2O,C7732185,water,647.0,220.64,17.9,0.0558659217877095,0.9000000000000001,6.208303118201596,0.00038391919999999994
582.3,1377.1,46653.0,2.1435e-05,21.91,24.862,54.615,53.376,76.765,1466.5,-0.0080689,113.85,0.6893,liquid,H2O,C7732185,water,647.0,220.64,17.9,0.0558659217877095,0.9000000000000001,6.241388687454677,0.0003836865
582.3,1384.5,46680.0,2.1423e-05,21.901,24.867,54.596,53.375,76.716,1468.6,-0.0081233,113.98,0.68996,liquid,H2O,C7732185,water,647.0,220.64,17.9,0.0558659217877095,0.9000000000000001,6.274927483683829,0.0003834717
582.3,1391.8,46707.0,2.141e-05,21.891,24.871,54.577,53.374,76.668,1470.6,-0.0081773,114.1,0.69062,liquid,H2O,C7732185,water,647.0,220.64,17.9,0.0558659217877095,0.9000000000000001,6.308013052936911,0.00038323899999999995
582.3,1399.2,46734.0,2.1398e-05,21.882,24.876,54.557,53.372,76.621,1472.7,-0.0082309,114.23,0.69128,liquid,H2O,C7732185,water,647.0,220.64,17.9,0.0558659217877095,0.9000000000000001,6.341551849166063,0.0003830242
582.3,1406.5,46761.0,2.1385e-05,21.873,24.881,54.538,53.371,76.573,1474.7,-0.008284,114.36,0.69194,liquid,H2O,C7732185,water,647.0,220.64,17.9,0.0558659217877095,0.9000000000000001,6.3746374184191446,0.00038279149999999996
582.3,1413.9,46788.0,2.1373e-05,21.863,24.885,54.519,53.369,76.526,1476.8,-0.0083368,114.49,0.6926,liquid,H2O,C7732185,water,647.0,220.64,17.9,0.0558659217877095,0.9000000000000001,6.408176214648297,0.0003825767
582.3,1421.2,46815.0,2.1361e-05,21.854,24.89,54.501,53.368,76.479,1478.8,-0.0083891,114.62,0.69325,liquid,H2O,C7732185,water,647.0,220.64,17.9,0.0558659217877095,0.9000000000000001,6.441261783901378,0.0003823619
582.3,1428.6,46841.0,2.1349e-05,21.845,24.895,54.482,53.367,76.433,1480.9,-0.0084411,114.75,0.6939,liquid,H2O,C7732185,water,647.0,220.64,17.9,0.0558659217877095,0.9000000000000001,6.4748005801305295,0.0003821470999999999
582.3,1435.9,46868.0,2.1337e-05,21.836,24.899,54.463,53.365,76.387,1482.9,-0.0084926,114.87,0.69456,liquid,H2O,C7732185,water,647.0,220.64,17.9,0.0558659217877095,0.9000000000000001,6.507886149383612,0.00038193229999999997
582.3,1443.3,46894.0,2.1325e-05,21.826,24.904,54.444,53.364,76.341,1484.9,-0.0085438,115.0,0.69521,liquid,H2O,C7732185,water,647.0,220.64,17.9,0.0558659217877095,0.9000000000000001,6.541424945612763,0.00038171749999999996
582.3,1450.6,46921.0,2.1313e-05,21.817,24.909,54.426,53.363,76.296,1487.0,-0.0085946,115.13,0.69586,liquid,H2O,C7732185,water,647.0,220.64,17.9,0.0558659217877095,0.9000000000000001,6.574510514865845,0.0003815027
582.3,1458.0,46947.0,2.1301e-05,21.808,24.914,54.407,53.362,76.25,1489.0,-0.008645,115.25,0.69651,liquid,H2O,C7732185,water,647.0,220.64,17.9,0.0558659217877095,0.9000000000000001,6.608049311094997,0.0003812879
582.3,1465.3,46973.0,2.1289e-05,21.799,24.919,54.389,53.36,76.206,1491.0,-0.008695,115.38,0.69716,liquid,H2O,C7732185,water,647.0,220.64,17.9,0.0558659217877095,0.9000000000000001,6.641134880348078,0.0003810731
582.3,1472.7,47000.0,2.1277e-05,21.79,24.924,54.37,53.359,76.161,1493.0,-0.0087446,115.51,0.6978,liquid,H2O,C7732185,water,647.0,220.64,17.9,0.0558659217877095,0.9000000000000001,6.67467367657723,0.00038085829999999997
582.3,1480.0,47026.0,2.1265e-05,21.781,24.928,54.352,53.358,76.117,1495.0,-0.0087939,115.63,0.69845,liquid,H2O,C7732185,water,647.0,220.64,17.9,0.0558659217877095,0.9000000000000001,6.707759245830312,0.00038064349999999996
582.3,1487.4,47052.0,2.1253e-05,21.772,24.933,54.333,53.357,76.073,1497.0,-0.0088428,115.76,0.69909,liquid,H2O,C7732185,water,647.0,220.64,17.9,0.0558659217877095,0.9000000000000001,6.741298042059464,0.0003804287
582.3,1494.7,47078.0,2.1242e-05,21.763,24.938,54.315,53.355,76.029,1498.9,-0.0088914,115.88,0.69974,liquid,H2O,C7732185,water,647.0,220.64,17.9,0.0558659217877095,0.9000000000000001,6.774383611312546,0.0003802318
582.3,1502.1,47103.0,2.123e-05,21.754,24.943,54.297,53.354,75.986,1500.9,-0.0089396,116.01,0.70038,liquid,H2O,C7732185,water,647.0,220.64,17.9,0.0558659217877095,0.9000000000000001,6.807922407541697,0.00038001699999999996
582.3,1509.4,47129.0,2.1218e-05,21.746,24.948,54.279,53.353,75.943,1502.9,-0.0089874,116.13,0.70102,liquid,H2O,C7732185,water,647.0,220.64,17.9,0.0558659217877095,0.9000000000000001,6.84100797679478,0.00037980219999999995
582.3,1516.8,47155.0,2.1207e-05,21.737,24.953,54.26,53.352,75.9,1504.9,-0.009035,116.26,0.70166,liquid,H2O,C7732185,water,647.0,220.64,17.9,0.0558659217877095,0.9000000000000001,6.874546773023931,0.0003796053
582.3,1524.1,47180.0,2.1195e-05,21.728,24.958,54.242,53.351,75.857,1506.8,-0.0090821,116.38,0.7023,liquid,H2O,C7732185,water,647.0,220.64,17.9,0.0558659217877095,0.9000000000000001,6.9076323422770125,0.00037939049999999997
582.3,1531.5,47206.0,2.1184e-05,21.719,24.963,54.224,53.35,75.815,1508.8,-0.0091289,116.51,0.70294,liquid,H2O,C7732185,water,647.0,220.64,17.9,0.0558659217877095,0.9000000000000001,6.9411711385061645,0.00037919359999999993
582.3,1538.8,47231.0,2.1172e-05,21.711,24.969,54.206,53.348,75.773,1510.7,-0.0091754,116.63,0.70358,liquid,H2O,C7732185,water,647.0,220.64,17.9,0.0558659217877095,0.9000000000000001,6.974256707759246,0.0003789788
582.3,1546.1,47257.0,2.1161e-05,21.702,24.974,54.188,53.347,75.731,1512.7,-0.0092216,116.76,0.70422,liquid,H2O,C7732185,water,647.0,220.64,17.9,0.0558659217877095,0.9000000000000001,7.007342277012328,0.00037878189999999995
582.3,1553.5,47282.0,2.115e-05,21.693,24.979,54.171,53.346,75.69,1514.6,-0.0092674,116.88,0.70485,liquid,H2O,C7732185,water,647.0,220.64,17.9,0.0558659217877095,0.9000000000000001,7.04088107324148,0.00037858499999999997
582.3,1560.8,47307.0,2.1138e-05,21.685,24.984,54.153,53.345,75.649,1516.5,-0.0093129,117.0,0.70549,liquid,H2O,C7732185,water,647.0,220.64,17.9,0.0558659217877095,0.9000000000000001,7.073966642494561,0.00037837019999999996
582.3,1568.2,47332.0,2.1127e-05,21.676,24.989,54.135,53.344,75.608,1518.5,-0.0093581,117.13,0.70612,liquid,H2O,C7732185,water,647.0,220.64,17.9,0.0558659217877095,0.9000000000000001,7.107505438723713,0.0003781733
582.3,1575.5,47357.0,2.1116e-05,21.667,24.994,54.117,53.343,75.567,1520.4,-0.0094029,117.25,0.70675,liquid,H2O,C7732185,water,647.0,220.64,17.9,0.0558659217877095,0.9000000000000001,7.140591007976795,0.00037797639999999995
582.3,1582.9,47382.0,2.1105e-05,21.659,25.0,54.1,53.342,75.527,1522.3,-0.0094475,117.37,0.70739,liquid,H2O,C7732185,water,647.0,220.64,17.9,0.0558659217877095,0.9000000000000001,7.174129804205947,0.00037777949999999997
582.3,1590.2,47407.0,2.1094e-05,21.65,25.005,54.082,53.341,75.487,1524.2,-0.0094917,117.5,0.70802,liquid,H2O,C7732185,water,647.0,220.64,17.9,0.0558659217877095,0.9000000000000001,7.207215373459029,0.0003775826
582.3,1597.6,47432.0,2.1083e-05,21.642,25.01,54.064,53.34,75.447,1526.1,-0.0095356,117.62,0.70865,liquid,H2O,C7732185,water,647.0,220.64,17.9,0.0558659217877095,0.9000000000000001,7.24075416968818,0.0003773857
582.3,1604.9,47457.0,2.1072e-05,21.634,25.015,54.047,53.339,75.407,1528.0,-0.0095793,117.74,0.70928,liquid,H2O,C7732185,water,647.0,220.64,17.9,0.0558659217877095,0.9000000000000001,7.273839738941263,0.0003771888
582.3,1612.3,47481.0,2.1061e-05,21.625,25.021,54.029,53.337,75.368,1529.9,-0.0096226,117.86,0.70991,liquid,H2O,C7732185,water,647.0,220.64,17.9,0.0558659217877095,0.9000000000000001,7.307378535170414,0.0003769919
582.3,1619.6,47506.0,2.105e-05,21.617,25.026,54.012,53.336,75.329,1531.8,-0.0096656,117.99,0.71053,liquid,H2O,C7732185,water,647.0,220.64,17.9,0.0558659217877095,0.9000000000000001,7.3404641044234955,0.00037679499999999997
582.3,1627.0,47530.0,2.1039e-05,21.608,25.031,53.995,53.335,75.29,1533.7,-0.0097083,118.11,0.71116,liquid,H2O,C7732185,water,647.0,220.64,17.9,0.0558659217877095,0.9000000000000001,7.3740029006526475,0.0003765981
582.3,1634.3,47555.0,2.1028e-05,21.6,25.037,53.977,53.334,75.251,1535.6,-0.0097508,118.23,0.71178,liquid,H2O,C7732185,water,647.0,220.64,17.9,0.0558659217877095,0.9000000000000001,7.407088469905729,0.00037640119999999996
582.3,1641.7,47579.0,2.1018e-05,21.592,25.042,53.96,53.333,75.213,1537.4,-0.0097929,118.35,0.71241,liquid,H2O,C7732185,water,647.0,220.64,17.9,0.0558659217877095,0.9000000000000001,7.440627266134881,0.0003762222
582.3,1649.0,47603.0,2.1007e-05,21.584,25.048,53.943,53.332,75.174,1539.3,-0.0098347,118.47,0.71303,liquid,H2O,C7732185,water,647.0,220.64,17.9,0.0558659217877095,0.9000000000000001,7.473712835387963,0.0003760253
582.3,1656.4,47628.0,2.0996e-05,21.575,25.053,53.926,53.331,75.136,1541.2,-0.0098763,118.59,0.71365,liquid,H2O,C7732185,water,647.0,220.64,17.9,0.0558659217877095,0.9000000000000001,7.507251631617114,0.00037582839999999995
582.3,1663.7,47652.0,2.0986e-05,21.567,25.059,53.909,53.33,75.099,1543.0,-0.0099176,118.71,0.71428,liquid,H2O,C7732185,water,647.0,220.64,17.9,0.0558659217877095,0.9000000000000001,7.540337200870196,0.00037564939999999995
582.3,1671.1,47676.0,2.0975e-05,21.559,25.064,53.892,53.329,75.061,1544.9,-0.0099586,118.83,0.7149,liquid,H2O,C7732185,water,647.0,220.64,17.9,0.0558659217877095,0.9000000000000001,7.573875997099347,0.00037545250000000003
582.3,1678.4,47700.0,2.0964e-05,21.551,25.07,53.875,53.328,75.024,1546.7,-0.0099994,118.96,0.71552,liquid,H2O,C7732185,water,647.0,220.64,17.9,0.0558659217877095,0.9000000000000001,7.60696156635243,0.0003752556
582.3,1685.8,47724.0,2.0954e-05,21.543,25.075,53.858,53.327,74.987,1548.6,-0.01004,119.08,0.71614,liquid,H2O,C7732185,water,647.0,220.64,17.9,0.0558659217877095,0.9000000000000001,7.640500362581581,0.00037507659999999995
582.3,1693.1,47748.0,2.0943e-05,21.535,25.081,53.841,53.327,74.95,1550.4,-0.01008,119.2,0.71675,liquid,H2O,C7732185,water,647.0,220.64,17.9,0.0558659217877095,0.9000000000000001,7.673585931834663,0.00037487969999999997
582.3,1700.5,47772.0,2.0933e-05,21.527,25.086,53.824,53.326,74.913,1552.2,-0.01012,119.32,0.71737,liquid,H2O,C7732185,water,647.0,220.64,17.9,0.0558659217877095,0.9000000000000001,7.707124728063815,0.00037470069999999997
582.3,1707.8,47795.0,2.0923e-05,21.519,25.092,53.807,53.325,74.877,1554.1,-0.01016,119.44,0.71799,liquid,H2O,C7732185,water,647.0,220.64,17.9,0.0558659217877095,0.9000000000000001,7.740210297316897,0.00037452169999999997
582.3,1715.2,47819.0,2.0912e-05,21.511,25.097,53.79,53.324,74.841,1555.9,-0.010199,119.55,0.7186,liquid,H2O,C7732185,water,647.0,220.64,17.9,0.0558659217877095,0.9000000000000001,7.773749093546049,0.00037432479999999994
582.3,1722.5,47843.0,2.0902e-05,21.503,25.103,53.774,53.323,74.805,1557.7,-0.010238,119.67,0.71922,liquid,H2O,C7732185,water,647.0,220.64,17.9,0.0558659217877095,0.9000000000000001,7.8068346627991305,0.0003741458
582.3,1729.9,47866.0,2.0892e-05,21.495,25.109,53.757,53.322,74.769,1559.5,-0.010277,119.79,0.71983,liquid,H2O,C7732185,water,647.0,220.64,17.9,0.0558659217877095,0.9000000000000001,7.8403734590282825,0.00037396679999999994
582.3,1737.2,47890.0,2.0881e-05,21.487,25.114,53.74,53.321,74.733,1561.3,-0.010316,119.91,0.72044,liquid,H2O,C7732185,water,647.0,220.64,17.9,0.0558659217877095,0.9000000000000001,7.873459028281364,0.00037376989999999996
582.3,1744.6,47913.0,2.0871e-05,21.479,25.12,53.724,53.32,74.698,1563.1,-0.010354,120.03,0.72106,liquid,H2O,C7732185,water,647.0,220.64,17.9,0.0558659217877095,0.9000000000000001,7.906997824510515,0.00037359089999999996
582.3,1751.9,47936.0,2.0861e-05,21.471,25.126,53.707,53.319,74.663,1564.9,-0.010392,120.15,0.72167,liquid,H2O,C7732185,water,647.0,220.64,17.9,0.0558659217877095,0.9000000000000001,7.940083393763597,0.00037341189999999996
582.3,1759.3,47960.0,2.0851e-05,21.463,25.131,53.691,53.318,74.628,1566.7,-0.01043,120.27,0.72228,liquid,H2O,C7732185,water,647.0,220.64,17.9,0.0558659217877095,0.9000000000000001,7.973622189992748,0.0003732329
582.3,1766.6,47983.0,2.0841e-05,21.455,25.137,53.674,53.317,74.593,1568.5,-0.010468,120.39,0.72289,liquid,H2O,C7732185,water,647.0,220.64,17.9,0.0558659217877095,0.9000000000000001,8.006707759245831,0.00037305389999999996
582.3,1773.9,48006.0,2.0831e-05,21.448,25.143,53.658,53.317,74.559,1570.3,-0.010505,120.51,0.72349,liquid,H2O,C7732185,water,647.0,220.64,17.9,0.0558659217877095,0.9000000000000001,8.039793328498913,0.0003728749
582.3,1781.3,48029.0,2.0821e-05,21.44,25.149,53.641,53.316,74.524,1572.1,-0.010542,120.62,0.7241,liquid,H2O,C7732185,water,647.0,220.64,17.9,0.0558659217877095,0.9000000000000001,8.073332124728065,0.00037269589999999996
582.3,1788.6,48052.0,2.0811e-05,21.432,25.154,53.625,53.315,74.49,1573.9,-0.010579,120.74,0.72471,liquid,H2O,C7732185,water,647.0,220.64,17.9,0.0558659217877095,0.9000000000000001,8.106417693981145,0.0003725169
582.3,1796.0,48075.0,2.0801e-05,21.424,25.16,53.609,53.314,74.456,1575.7,-0.010616,120.86,0.72531,liquid,H2O,C7732185,water,647.0,220.64,17.9,0.0558659217877095,0.9000000000000001,8.139956490210297,0.00037233789999999996
582.3,1803.3,48098.0,2.0791e-05,21.417,25.166,53.592,53.313,74.422,1577.4,-0.010652,120.98,0.72592,liquid,H2O,C7732185,water,647.0,220.64,17.9,0.0558659217877095,0.9000000000000001,8.173042059463379,0.0003721589
582.3,1810.7,48121.0,2.0781e-05,21.409,25.172,53.576,53.312,74.389,1579.2,-0.010689,121.09,0.72652,liquid,H2O,C7732185,water,647.0,220.64,17.9,0.0558659217877095,0.9000000000000001,8.20658085569253,0.00037197989999999997
582.3,1818.0,48144.0,2.0771e-05,21.401,25.178,53.56,53.312,74.355,1580.9,-0.010724,121.21,0.72713,liquid,H2O,C7732185,water,647.0,220.64,17.9,0.0558659217877095,0.9000000000000001,8.239666424945613,0.0003718009
582.3,1825.4,48167.0,2.0761e-05,21.394,25.184,53.544,53.311,74.322,1582.7,-0.01076,121.33,0.72773,liquid,H2O,C7732185,water,647.0,220.64,17.9,0.0558659217877095,0.9000000000000001,8.273205221174765,0.00037162189999999997
582.3,1832.7,48189.0,2.0752e-05,21.386,25.189,53.528,53.31,74.289,1584.4,-0.010796,121.44,0.72833,liquid,H2O,C7732185,water,647.0,220.64,17.9,0.0558659217877095,0.9000000000000001,8.306290790427846,0.0003714608
582.3,1840.1,48212.0,2.0742e-05,21.379,25.195,53.512,53.309,74.256,1586.2,-0.010831,121.56,0.72893,liquid,H2O,C7732185,water,647.0,220.64,17.9,0.0558659217877095,0.9000000000000001,8.339829586656998,0.00037128179999999995
582.3,1847.4,48234.0,2.0732e-05,21.371,25.201,53.496,53.308,74.224,1587.9,-0.010866,121.68,0.72953,liquid,H2O,C7732185,water,647.0,220.64,17.9,0.0558659217877095,0.9000000000000001,8.37291515591008,0.0003711028
582.3,1854.8,48257.0,2.0722e-05,21.364,25.207,53.48,53.308,74.191,1589.7,-0.010901,121.79,0.73013,liquid,H2O,C7732185,water,647.0,220.64,17.9,0.0558659217877095,0.9000000000000001,8.406453952139232,0.00037092379999999995
582.3,1862.1,48279.0,2.0713e-05,21.356,25.213,53.464,53.307,74.159,1591.4,-0.010936,121.91,0.73073,liquid,H2O,C7732185,water,647.0,220.64,17.9,0.0558659217877095,0.9000000000000001,8.439539521392314,0.0003707627
582.3,1869.5,48302.0,2.0703e-05,21.349,25.219,53.448,53.306,74.127,1593.1,-0.01097,122.03,0.73133,liquid,H2O,C7732185,water,647.0,220.64,17.9,0.0558659217877095,0.9000000000000001,8.473078317621466,0.0003705837
582.3,1876.8,48324.0,2.0694e-05,21.341,25.225,53.432,53.305,74.095,1594.9,-0.011004,122.14,0.73193,liquid,H2O,C7732185,water,647.0,220.64,17.9,0.0558659217877095,0.9000000000000001,8.506163886874548,0.00037042259999999996
582.3,1884.2,48346.0,2.0684e-05,21.334,25.231,53.416,53.304,74.063,1596.6,-0.011038,122.26,0.73252,liquid,H2O,C7732185,water,647.0,220.64,17.9,0.0558659217877095,0.9000000000000001,8.5397026831037,0.00037024359999999996
582.3,1891.5,48369.0,2.0675e-05,21.326,25.237,53.401,53.304,74.031,1598.3,-0.011072,122.37,0.73312,liquid,H2O,C7732185,water,647.0,220.64,17.9,0.0558659217877095,0.9000000000000001,8.57278825235678,0.0003700825
582.3,1898.9,48391.0,2.0665e-05,21.319,25.243,53.385,53.303,74.0,1600.0,-0.011106,122.49,0.73371,liquid,H2O,C7732185,water,647.0,220.64,17.9,0.0558659217877095,0.9000000000000001,8.606327048585932,0.0003699035
582.3,1906.2,48413.0,2.0656e-05,21.312,25.249,53.369,53.302,73.969,1601.7,-0.011139,122.6,0.73431,liquid,H2O,C7732185,water,647.0,220.64,17.9,0.0558659217877095,0.9000000000000001,8.639412617839014,0.00036974239999999997
582.3,1913.6,48435.0,2.0646e-05,21.304,25.255,53.353,53.301,73.937,1603.4,-0.011173,122.72,0.7349,liquid,H2O,C7732185,water,647.0,220.64,17.9,0.0558659217877095,0.9000000000000001,8.672951414068166,0.00036956339999999997
582.3,1920.9,48457.0,2.0637e-05,21.297,25.261,53.338,53.301,73.906,1605.1,-0.011206,122.83,0.73549,liquid,H2O,C7732185,water,647.0,220.64,17.9,0.0558659217877095,0.9000000000000001,8.706036983321248,0.00036940229999999995
582.3,1928.3,48479.0,2.0628e-05,21.29,25.267,53.322,53.3,73.876,1606.8,-0.011238,122.95,0.73608,liquid,H2O,C7732185,water,647.0,220.64,17.9,0.0558659217877095,0.9000000000000001,8.7395757795504,0.0003692412
582.3,1935.6,48501.0,2.0618e-05,21.283,25.274,53.307,53.299,73.845,1608.5,-0.011271,123.06,0.73667,liquid,H2O,C7732185,water,647.0,220.64,17.9,0.0558659217877095,0.9000000000000001,8.772661348803481,0.0003690622
582.3,1943.0,48522.0,2.0609e-05,21.275,25.28,53.291,53.299,73.815,1610.2,-0.011303,123.18,0.73726,liquid,H2O,C7732185,water,647.0,220.64,17.9,0.0558659217877095,0.9000000000000001,8.806200145032633,0.00036890109999999996
582.3,1950.3,48544.0,2.06e-05,21.268,25.286,53.276,53.298,73.784,1611.9,-0.011336,123.29,0.73785,liquid,H2O,C7732185,water,647.0,220.64,17.9,0.0558659217877095,0.9000000000000001,8.839285714285715,0.00036873999999999994
582.3,1957.7,48566.0,2.0591e-05,21.261,25.292,53.26,53.297,73.754,1613.6,-0.011368,123.41,0.73844,liquid,H2O,C7732185,water,647.0,220.64,17.9,0.0558659217877095,0.9000000000000001,8.872824510514867,0.0003685789
582.3,1965.0,48587.0,2.0581e-05,21.254,25.298,53.245,53.296,73.724,1615.3,-0.011399,123.52,0.73903,liquid,H2O,C7732185,water,647.0,220.64,17.9,0.0558659217877095,0.9000000000000001,8.90591007976795,0.00036839990000000003
582.3,1972.4,48609.0,2.0572e-05,21.247,25.304,53.23,53.296,73.694,1616.9,-0.011431,123.63,0.73962,liquid,H2O,C7732185,water,647.0,220.64,17.9,0.0558659217877095,0.9000000000000001,8.939448875997101,0.00036823879999999995
582.3,1979.7,48631.0,2.0563e-05,21.24,25.311,53.214,53.295,73.665,1618.6,-0.011463,123.75,0.7402,liquid,H2O,C7732185,water,647.0,220.64,17.9,0.0558659217877095,0.9000000000000001,8.972534445250181,0.0003680777