Temperature (K),Pressure (bar),Density (mol/m3),Volume (m3/mol),Internal Energy (kJ/mol),Enthalpy (kJ/mol),Entropy (J/mol*K),Cv (J/mol*K),Cp (J/mol*K),Sound Spd. (m/s),Joule-Thomson (K/bar),Viscosity (uPa*s),Therm. Cond. (W/m*K),Phase,substance,substance_id,substance_name,Tc,Pc,rhoc,Vmc,Tr,Pr,Vmr
1229.3,2104.6,20119.0,4.9705e-05,62.332,72.793,108.1,42.325,63.546,1056.3,0.03097,62.851,0.37009,supercritical,H2O,C7732185,water,647.0,220.64,17.9,0.0558659217877095,1.9,9.538614938361132,0.0008897194999999999
1229.3,2112.0,20173.0,4.957e-05,62.309,72.778,108.06,42.336,63.563,1057.7,0.030748,62.912,0.37083,supercritical,H2O,C7732185,water,647.0,220.64,17.9,0.0558659217877095,1.9,9.572153734590284,0.000887303
1229.3,2119.3,20228.0,4.9436e-05,62.287,72.764,108.01,42.348,63.579,1059.0,0.030528,62.974,0.37157,supercritical,H2O,C7732185,water,647.0,220.64,17.9,0.0558659217877095,1.9,9.605239303843366,0.0008849044
1229.3,2126.7,20283.0,4.9304e-05,62.265,72.75,107.97,42.359,63.595,1060.4,0.030308,63.035,0.37231,supercritical,H2O,C7732185,water,647.0,220.64,17.9,0.0558659217877095,1.9,9.638778100072516,0.0008825415999999999
1229.3,2134.0,20337.0,4.9172e-05,62.243,72.736,107.93,42.371,63.611,1061.8,0.03009,63.096,0.37305,supercritical,H2O,C7732185,water,647.0,220.64,17.9,0.0558659217877095,1.9,9.6718636693256,0.0008801788
1229.3,2141.4,20391.0,4.9041e-05,62.22,72.722,107.89,42.382,63.627,1063.2,0.029874,63.158,0.37378,supercritical,H2O,C7732185,water,647.0,220.64,17.9,0.0558659217877095,1.9,9.705402465554752,0.0008778338999999999
1229.3,2148.7,20445.0,4.8911e-05,62.198,72.708,107.85,42.394,63.642,1064.5,0.029658,63.219,0.37452,supercritical,H2O,C7732185,water,647.0,220.64,17.9,0.0558659217877095,1.9,9.738488034807832,0.0008755068999999999
1229.3,2156.1,20499.0,4.8782e-05,62.176,72.694,107.81,42.405,63.658,1065.9,0.029444,63.28,0.37525,supercritical,H2O,C7732185,water,647.0,220.64,17.9,0.0558659217877095,1.9,9.772026831036984,0.0008731978
1229.3,2163.4,20553.0,4.8655e-05,62.154,72.68,107.77,42.417,63.673,1067.3,0.02923,63.341,0.37598,supercritical,H2O,C7732185,water,647.0,220.64,17.9,0.0558659217877095,1.9,9.805112400290067,0.0008709245
1229.3,2170.8,20607.0,4.8528e-05,62.133,72.667,107.73,42.428,63.688,1068.7,0.029018,63.402,0.37671,supercritical,H2O,C7732185,water,647.0,220.64,17.9,0.0558659217877095,1.9,9.838651196519217,0.0008686512
1229.3,2178.1,20660.0,4.8402e-05,62.111,72.653,107.69,42.439,63.702,1070.1,0.028808,63.464,0.37744,supercritical,H2O,C7732185,water,647.0,220.64,17.9,0.0558659217877095,1.9,9.8717367657723,0.0008663958
1229.3,2185.5,20714.0,4.8277e-05,62.089,72.64,107.65,42.45,63.717,1071.4,0.028598,63.525,0.37817,supercritical,H2O,C7732185,water,647.0,220.64,17.9,0.0558659217877095,1.9,9.905275562001451,0.0008641583
1229.3,2192.8,20767.0,4.8153e-05,62.067,72.626,107.61,42.461,63.731,1072.8,0.028389,63.586,0.37889,supercritical,H2O,C7732185,water,647.0,220.64,17.9,0.0558659217877095,1.9,9.938361131254533,0.0008619386999999999
1229.3,2200.2,20820.0,4.8031e-05,62.046,72.613,107.57,42.473,63.745,1074.2,0.028182,63.647,0.37961,supercritical,H2O,C7732185,water,647.0,220.64,17.9,0.0558659217877095,1.9,9.971899927483683,0.0008597549
1229.3,2207.5,20873.0,4.7909e-05,62.024,72.6,107.53,42.484,63.759,1075.6,0.027976,63.708,0.38034,supercritical,H2O,C7732185,water,647.0,220.64,17.9,0.0558659217877095,1.9,10.004985496736767,0.0008575710999999999
1229.3,2214.8,20926.0,4.7788e-05,62.003,72.587,107.49,42.495,63.772,1077.0,0.027771,63.769,0.38106,supercritical,H2O,C7732185,water,647.0,220.64,17.9,0.0558659217877095,1.9,10.038071065989849,0.0008554051999999999
1229.3,2222.2,20979.0,4.7668e-05,61.981,72.574,107.45,42.506,63.786,1078.4,0.027568,63.83,0.38178,supercritical,H2O,C7732185,water,647.0,220.64,17.9,0.0558659217877095,1.9,10.071609862218999,0.0008532571999999999
1229.3,2229.5,21031.0,4.7548e-05,61.96,72.561,107.41,42.517,63.799,1079.8,0.027365,63.891,0.3825,supercritical,H2O,C7732185,water,647.0,220.64,17.9,0.0558659217877095,1.9,10.104695431472082,0.0008511091999999999
1229.3,2236.9,21084.0,4.743e-05,61.939,72.548,107.38,42.527,63.812,1081.1,0.027164,63.952,0.38322,supercritical,H2O,C7732185,water,647.0,220.64,17.9,0.0558659217877095,1.9,10.138234227701235,0.0008489969999999999
1229.3,2244.2,21136.0,4.7313e-05,61.917,72.536,107.34,42.538,63.825,1082.5,0.026963,64.013,0.38393,supercritical,H2O,C7732185,water,647.0,220.64,17.9,0.0558659217877095,1.9,10.171319796954315,0.0008469027
1229.3,2251.6,21188.0,4.7196e-05,61.896,72.523,107.3,42.549,63.838,1083.9,0.026764,64.074,0.38465,supercritical,H2O,C7732185,water,647.0,220.64,17.9,0.0558659217877095,1.9,10.204858593183467,0.0008448084
1229.3,2258.9,21240.0,4.7081e-05,61.875,72.511,107.26,42.56,63.85,1085.3,0.026566,64.135,0.38536,supercritical,H2O,C7732185,water,647.0,220.64,17.9,0.0558659217877095,1.9,10.23794416243655,0.0008427498999999999
1229.3,2266.3,21292.0,4.6966e-05,61.854,72.498,107.22,42.571,63.863,1086.7,0.026369,64.196,0.38607,supercritical,H2O,C7732185,water,647.0,220.64,17.9,0.0558659217877095,1.9,10.2714829586657,0.0008406913999999999
1229.3,2273.6,21344.0,4.6852e-05,61.833,72.486,107.18,42.581,63.875,1088.1,0.026174,64.257,0.38678,supercritical,H2O,C7732185,water,647.0,220.64,17.9,0.0558659217877095,1.9,10.304568527918782,0.0008386507999999999
1229.3,2281.0,21395.0,4.6739e-05,61.812,72.474,107.15,42.592,63.887,1089.5,0.025979,64.318,0.38749,supercritical,H2O,C7732185,water,647.0,220.64,17.9,0.0558659217877095,1.9,10.338107324147934,0.0008366281
1229.3,2288.3,21447.0,4.6627e-05,61.792,72.461,107.11,42.603,63.899,1090.9,0.025786,64.379,0.3882,supercritical,H2O,C7732185,water,647.0,220.64,17.9,0.0558659217877095,1.9,10.371192893401016,0.0008346232999999999
1229.3,2295.7,21498.0,4.6516e-05,61.771,72.449,107.07,42.613,63.91,1092.2,0.025593,64.44,0.38891,supercritical,H2O,C7732185,water,647.0,220.64,17.9,0.0558659217877095,1.9,10.404731689630166,0.0008326363999999999
1229.3,2303.0,21549.0,4.6405e-05,61.75,72.437,107.03,42.624,63.922,1093.6,0.025402,64.501,0.38961,supercritical,H2O,C7732185,water,647.0,220.64,17.9,0.0558659217877095,1.9,10.43781725888325,0.0008306495
1229.3,2310.4,21600.0,4.6295e-05,61.729,72.425,107.0,42.634,63.933,1095.0,0.025212,64.562,0.39032,supercritical,H2O,C7732185,water,647.0,220.64,17.9,0.0558659217877095,1.9,10.471356055112402,0.0008286805
1229.3,2317.7,21651.0,4.6186e-05,61.709,72.414,106.96,42.645,63.944,1096.4,0.025023,64.622,0.39102,supercritical,H2O,C7732185,water,647.0,220.64,17.9,0.0558659217877095,1.9,10.504441624365482,0.0008267293999999999
1229.3,2325.1,21702.0,4.6078e-05,61.688,72.402,106.92,42.655,63.955,1097.8,0.024835,64.683,0.39172,supercritical,H2O,C7732185,water,647.0,220.64,17.9,0.0558659217877095,1.9,10.537980420594634,0.0008247962
1229.3,2332.4,21753.0,4.5971e-05,61.668,72.39,106.88,42.666,63.966,1099.2,0.024648,64.744,0.39243,supercritical,H2O,C7732185,water,647.0,220.64,17.9,0.0558659217877095,1.9,10.571065989847718,0.0008228808999999999
1229.3,2339.8,21803.0,4.5864e-05,61.648,72.379,106.85,42.676,63.977,1100.6,0.024463,64.805,0.39313,supercritical,H2O,C7732185,water,647.0,220.64,17.9,0.0558659217877095,1.9,10.60460478607687,0.0008209656
1229.3,2347.1,21854.0,4.5759e-05,61.627,72.367,106.81,42.686,63.987,1102.0,0.024278,64.866,0.39382,supercritical,H2O,C7732185,water,647.0,220.64,17.9,0.0558659217877095,1.9,10.63769035532995,0.0008190860999999999
1229.3,2354.5,21904.0,4.5654e-05,61.607,72.356,106.77,42.697,63.998,1103.4,0.024094,64.926,0.39452,supercritical,H2O,C7732185,water,647.0,220.64,17.9,0.0558659217877095,1.9,10.671229151559102,0.0008172066
1229.3,2361.8,21954.0,4.5549e-05,61.587,72.345,106.74,42.707,64.008,1104.8,0.023912,64.987,0.39522,supercritical,H2O,C7732185,water,647.0,220.64,17.9,0.0558659217877095,1.9,10.704314720812183,0.0008153271
1229.3,2369.2,22004.0,4.5446e-05,61.567,72.333,106.7,42.717,64.018,1106.1,0.02373,65.048,0.39591,supercritical,H2O,C7732185,water,647.0,220.64,17.9,0.0558659217877095,1.9,10.737853517041334,0.0008134834
1229.3,2376.5,22054.0,4.5343e-05,61.547,72.322,106.67,42.727,64.028,1107.5,0.02355,65.108,0.39661,supercritical,H2O,C7732185,water,647.0,220.64,17.9,0.0558659217877095,1.9,10.770939086294417,0.0008116397
1229.3,2383.9,22104.0,4.5241e-05,61.527,72.311,106.63,42.737,64.038,1108.9,0.023371,65.169,0.3973,supercritical,H2O,C7732185,water,647.0,220.64,17.9,0.0558659217877095,1.9,10.80447788252357,0.0008098139
1229.3,2391.2,22154.0,4.5139e-05,61.507,72.3,106.59,42.747,64.048,1110.3,0.023193,65.23,0.39799,supercritical,H2O,C7732185,water,647.0,220.64,17.9,0.0558659217877095,1.9,10.83756345177665,0.0008079881
1229.3,2398.6,22203.0,4.5039e-05,61.487,72.289,106.56,42.757,64.057,1111.7,0.023015,65.29,0.39868,supercritical,H2O,C7732185,water,647.0,220.64,17.9,0.0558659217877095,1.9,10.871102248005801,0.0008061981
1229.3,2405.9,22252.0,4.4939e-05,61.467,72.279,106.52,42.767,64.066,1113.1,0.022839,65.351,0.39937,supercritical,H2O,C7732185,water,647.0,220.64,17.9,0.0558659217877095,1.9,10.904187817258885,0.0008044080999999999
1229.3,2413.3,22302.0,4.484e-05,61.447,72.268,106.49,42.777,64.076,1114.5,0.022664,65.412,0.40006,supercritical,H2O,C7732185,water,647.0,220.64,17.9,0.0558659217877095,1.9,10.937726613488037,0.0008026359999999999
1229.3,2420.6,22351.0,4.4741e-05,61.427,72.257,106.45,42.787,64.085,1115.9,0.02249,65.472,0.40074,supercritical,H2O,C7732185,water,647.0,220.64,17.9,0.0558659217877095,1.9,10.970812182741117,0.0008008639
1229.3,2428.0,22400.0,4.4643e-05,61.408,72.247,106.42,42.797,64.094,1117.3,0.022317,65.533,0.40143,supercritical,H2O,C7732185,water,647.0,220.64,17.9,0.0558659217877095,1.9,11.004350978970269,0.0007991096999999999
1229.3,2435.3,22449.0,4.4546e-05,61.388,72.236,106.38,42.807,64.103,1118.7,0.022145,65.593,0.40211,supercritical,H2O,C7732185,water,647.0,220.64,17.9,0.0558659217877095,1.9,11.037436548223353,0.0007973733999999999
1229.3,2442.6,22497.0,4.4449e-05,61.368,72.226,106.35,42.817,64.111,1120.0,0.021974,65.654,0.4028,supercritical,H2O,C7732185,water,647.0,220.64,17.9,0.0558659217877095,1.9,11.070522117476433,0.0007956371
1229.3,2450.0,22546.0,4.4354e-05,61.349,72.216,106.31,42.827,64.12,1121.4,0.021804,65.714,0.40348,supercritical,H2O,C7732185,water,647.0,220.64,17.9,0.0558659217877095,1.9,11.104060913705585,0.0007939366
1229.3,2457.3,22595.0,4.4258e-05,61.33,72.205,106.28,42.837,64.129,1122.8,0.021635,65.775,0.40416,supercritical,H2O,C7732185,water,647.0,220.64,17.9,0.0558659217877095,1.9,11.137146482958666,0.0007922182
1229.3,2464.7,22643.0,4.4164e-05,61.31,72.195,106.24,42.846,64.137,1124.2,0.021467,65.835,0.40484,supercritical,H2O,C7732185,water,647.0,220.64,17.9,0.0558659217877095,1.9,11.170685279187817,0.0007905356
1229.3,2472.0,22691.0,4.407e-05,61.291,72.185,106.21,42.856,64.145,1125.6,0.0213,65.896,0.40552,supercritical,H2O,C7732185,water,647.0,220.64,17.9,0.0558659217877095,1.9,11.2037708484409,0.0007888530000000001
1229.3,2479.4,22739.0,4.3977e-05,61.272,72.175,106.17,42.866,64.153,1127.0,0.021134,65.956,0.4062,supercritical,H2O,C7732185,water,647.0,220.64,17.9,0.0558659217877095,1.9,11.237309644670052,0.0007871883
1229.3,2486.7,22787.0,4.3884e-05,61.252,72.165,106.14,42.876,64.161,1128.4,0.020969,66.017,0.40687,supercritical,H2O,C7732185,water,647.0,220.64,17.9,0.0558659217877095,1.9,11.270395213923132,0.0007855236
1229.3,2494.1,22835.0,4.3792e-05,61.233,72.155,106.1,42.885,64.169,1129.7,0.020805,66.077,0.40755,supercritical,H2O,C7732185,water,647.0,220.64,17.9,0.0558659217877095,1.9,11.303934010152284,0.0007838767999999999
1229.3,2501.4,22883.0,4.3701e-05,61.214,72.146,106.07,42.895,64.177,1131.1,0.020642,66.137,0.40822,supercritical,H2O,C7732185,water,647.0,220.64,17.9,0.0558659217877095,1.9,11.337019579405368,0.0007822479
1229.3,2508.8,22931.0,4.361e-05,61.195,72.136,106.04,42.904,64.185,1132.5,0.02048,66.198,0.4089,supercritical,H2O,C7732185,water,647.0,220.64,17.9,0.0558659217877095,1.9,11.37055837563452,0.0007806189999999999
1229.3,2516.1,22978.0,4.352e-05,61.176,72.126,106.0,42.914,64.192,1133.9,0.020319,66.258,0.40957,supercritical,H2O,C7732185,water,647.0,220.64,17.9,0.0558659217877095,1.9,11.4036439448876,0.0007790079999999999
1229.3,2523.5,23026.0,4.343e-05,61.157,72.117,105.97,42.923,64.2,1135.3,0.020159,66.318,0.41024,supercritical,H2O,C7732185,water,647.0,220.64,17.9,0.0558659217877095,1.9,11.437182741116752,0.000777397
1229.3,2530.8,23073.0,4.3341e-05,61.138,72.107,105.93,42.933,64.207,1136.7,0.019999,66.379,0.41091,supercritical,H2O,C7732185,water,647.0,220.64,17.9,0.0558659217877095,1.9,11.470268310369836,0.0007758038999999999
1229.3,2538.2,23120.0,4.3253e-05,61.12,72.098,105.9,42.942,64.214,1138.0,0.019841,66.439,0.41158,supercritical,H2O,C7732185,water,647.0,220.64,17.9,0.0558659217877095,1.9,11.503807106598984,0.0007742287
1229.3,2545.5,23167.0,4.3165e-05,61.101,72.089,105.87,42.952,64.221,1139.4,0.019684,66.499,0.41225,supercritical,H2O,C7732185,water,647.0,220.64,17.9,0.0558659217877095,1.9,11.536892675852068,0.0007726534999999999
1229.3,2552.9,23214.0,4.3078e-05,61.082,72.079,105.83,42.961,64.228,1140.8,0.019527,66.56,0.41292,supercritical,H2O,C7732185,water,647.0,220.64,17.9,0.0558659217877095,1.9,11.57043147208122,0.0007710962
1229.3,2560.2,23261.0,4.2991e-05,61.063,72.07,105.8,42.97,64.235,1142.2,0.019372,66.62,0.41358,supercritical,H2O,C7732185,water,647.0,220.64,17.9,0.0558659217877095,1.9,11.6035170413343,0.0007695389
1229.3,2567.6,23307.0,4.2905e-05,61.045,72.061,105.77,42.98,64.242,1143.6,0.019217,66.68,0.41425,supercritical,H2O,C7732185,water,647.0,220.64,17.9,0.0558659217877095,1.9,11.637055837563452,0.0007679994999999998
1229.3,2574.9,23354.0,4.2819e-05,61.026,72.052,105.73,42.989,64.249,1144.9,0.019064,66.74,0.41491,supercritical,H2O,C7732185,water,647.0,220.64,17.9,0.0558659217877095,1.9,11.670141406816535,0.0007664600999999999
1229.3,2582.3,23400.0,4.2734e-05,61.008,72.043,105.7,42.998,64.255,1146.3,0.018911,66.801,0.41558,supercritical,H2O,C7732185,water,647.0,220.64,17.9,0.0558659217877095,1.9,11.703680203045687,0.0007649385999999999
1229.3,2589.6,23447.0,4.265e-05,60.989,72.034,105.67,43.008,64.262,1147.7,0.018759,66.861,0.41624,supercritical,H2O,C7732185,water,647.0,220.64,17.9,0.0558659217877095,1.9,11.736765772298767,0.0007634349999999999
1229.3,2597.0,23493.0,4.2566e-05,60.971,72.025,105.64,43.017,64.268,1149.1,0.018608,66.921,0.4169,supercritical,H2O,C7732185,water,647.0,220.64,17.9,0.0558659217877095,1.9,11.77030456852792,0.0007619313999999999
1229.3,2604.3,23539.0,4.2483e-05,60.953,72.016,105.6,43.026,64.275,1150.5,0.018458,66.981,0.41756,supercritical,H2O,C7732185,water,647.0,220.64,17.9,0.0558659217877095,1.9,11.803390137781003,0.0007604456999999999
1229.3,2611.7,23585.0,4.24e-05,60.934,72.008,105.57,43.035,64.281,1151.8,0.018309,67.041,0.41822,supercritical,H2O,C7732185,water,647.0,220.64,17.9,0.0558659217877095,1.9,11.836928934010151,0.0007589599999999999
1229.3,2619.0,23631.0,4.2317e-05,60.916,71.999,105.54,43.044,64.287,1153.2,0.018161,67.101,0.41888,supercritical,H2O,C7732185,water,647.0,220.64,17.9,0.0558659217877095,1.9,11.870014503263235,0.0007574742999999999
1229.3,2626.4,23677.0,4.2236e-05,60.898,71.991,105.51,43.053,64.293,1154.6,0.018014,67.161,0.41954,supercritical,H2O,C7732185,water,647.0,220.64,17.9,0.0558659217877095,1.9,11.903553299492387,0.0007560243999999999
1229.3,2633.7,23722.0,4.2154e-05,60.88,71.982,105.47,43.062,64.299,1155.9,0.017867,67.221,0.42019,supercritical,H2O,C7732185,water,647.0,220.64,17.9,0.0558659217877095,1.9,11.936638868745467,0.0007545566
1229.3,2641.1,23768.0,4.2074e-05,60.862,71.974,105.44,43.071,64.305,1157.3,0.017721,67.281,0.42085,supercritical,H2O,C7732185,water,647.0,220.64,17.9,0.0558659217877095,1.9,11.970177664974619,0.0007531245999999999
1229.3,2648.4,23813.0,4.1993e-05,60.844,71.965,105.41,43.08,64.311,1158.7,0.017577,67.341,0.4215,supercritical,H2O,C7732185,water,647.0,220.64,17.9,0.0558659217877095,1.9,12.003263234227703,0.0007516747
1229.3,2655.7,23859.0,4.1914e-05,60.826,71.957,105.38,43.089,64.316,1160.1,0.017433,67.401,0.42216,supercritical,H2O,C7732185,water,647.0,220.64,17.9,0.0558659217877095,1.9,12.036348803480783,0.0007502606
1229.3,2663.1,23904.0,4.1835e-05,60.808,71.949,105.35,43.098,64.322,1161.4,0.01729,67.461,0.42281,supercritical,H2O,C7732185,water,647.0,220.64,17.9,0.0558659217877095,1.9,12.069887599709935,0.0007488465
1229.3,2670.4,23949.0,4.1756e-05,60.79,71.941,105.32,43.107,64.328,1162.8,0.017148,67.521,0.42346,supercritical,H2O,C7732185,water,647.0,220.64,17.9,0.0558659217877095,1.9,12.102973168963018,0.0007474323999999999
1229.3,2677.8,23994.0,4.1678e-05,60.772,71.933,105.28,43.116,64.333,1164.2,0.017006,67.581,0.42411,supercritical,H2O,C7732185,water,647.0,220.64,17.9,0.0558659217877095,1.9,12.13651196519217,0.0007460362
1229.3,2685.1,24039.0,4.16e-05,60.755,71.925,105.25,43.125,64.338,1165.5,0.016866,67.641,0.42477,supercritical,H2O,C7732185,water,647.0,220.64,17.9,0.0558659217877095,1.9,12.16959753444525,0.00074464
1229.3,2692.5,24083.0,4.1522e-05,60.737,71.917,105.22,43.134,64.344,1166.9,0.016726,67.701,0.42541,supercritical,H2O,C7732185,water,647.0,220.64,17.9,0.0558659217877095,1.9,12.203136330674402,0.0007432437999999999
1229.3,2699.8,24128.0,4.1446e-05,60.719,71.909,105.19,43.143,64.349,1168.3,0.016587,67.761,0.42606,supercritical,H2O,C7732185,water,647.0,220.64,17.9,0.0558659217877095,1.9,12.236221899927486,0.0007418834
1229.3,2707.2,24172.0,4.1369e-05,60.702,71.901,105.16,43.152,64.354,1169.6,0.016449,67.821,0.42671,supercritical,H2O,C7732185,water,647.0,220.64,17.9,0.0558659217877095,1.9,12.269760696156634,0.0007405051000000001
1229.3,2714.5,24217.0,4.1293e-05,60.684,71.893,105.13,43.16,64.359,1171.0,0.016312,67.881,0.42736,supercritical,H2O,C7732185,water,647.0,220.64,17.9,0.0558659217877095,1.9,12.302846265409718,0.0007391447
1229.3,2721.9,24261.0,4.1218e-05,60.667,71.886,105.1,43.169,64.364,1172.3,0.016175,67.941,0.428,supercritical,H2O,C7732185,water,647.0,220.64,17.9,0.0558659217877095,1.9,12.33638506163887,0.0007378021999999999
1229.3,2729.2,24305.0,4.1143e-05,60.649,71.878,105.07,43.178,64.369,1173.7,0.01604,68.001,0.42865,supercritical,H2O,C7732185,water,647.0,220.64,17.9,0.0558659217877095,1.9,12.36947063089195,0.0007364597
1229.3,2736.6,24349.0,4.1069e-05,60.632,71.871,105.04,43.186,64.374,1175.1,0.015905,68.06,0.42929,supercritical,H2O,C7732185,water,647.0,220.64,17.9,0.0558659217877095,1.9,12.403009427121102,0.0007351351
1229.3,2743.9,24393.0,4.0995e-05,60.614,71.863,105.01,43.195,64.379,1176.4,0.015771,68.12,0.42994,supercritical,H2O,C7732185,water,647.0,220.64,17.9,0.0558659217877095,1.9,12.436094996374186,0.0007338105000000001
1229.3,2751.3,24437.0,4.0921e-05,60.597,71.856,104.97,43.204,64.383,1177.8,0.015638,68.18,0.43058,supercritical,H2O,C7732185,water,647.0,220.64,17.9,0.0558659217877095,1.9,12.469633792603338,0.0007324858999999999
1229.3,2758.6,24481.0,4.0848e-05,60.58,71.848,104.94,43.212,64.388,1179.1,0.015505,68.24,0.43122,supercritical,H2O,C7732185,water,647.0,220.64,17.9,0.0558659217877095,1.9,12.502719361856418,0.0007311792
1229.3,2766.0,24525.0,4.0775e-05,60.563,71.841,104.91,43.221,64.392,1180.5,0.015374,68.299,0.43186,supercritical,H2O,C7732185,water,647.0,220.64,17.9,0.0558659217877095,1.9,12.53625815808557,0.0007298725
1229.3,2773.3,24568.0,4.0703e-05,60.545,71.834,104.88,43.23,64.397,1181.8,0.015243,68.359,0.4325,supercritical,H2O,C7732185,water,647.0,220.64,17.9,0.0558659217877095,1.9,12.569343727338653,0.0007285836999999999
1229.3,2780.7,24612.0,4.0631e-05,60.528,71.826,104.85,43.238,64.401,1183.2,0.015113,68.419,0.43314,supercritical,H2O,C7732185,water,647.0,220.64,17.9,0.0558659217877095,1.9,12.602882523567803,0.0007272949
1229.3,2788.0,24655.0,4.056e-05,60.511,71.819,104.82,43.247,64.406,1184.5,0.014983,68.478,0.43378,supercritical,H2O,C7732185,water,647.0,220.64,17.9,0.0558659217877095,1.9,12.635968092820885,0.0007260239999999999