Temperature (K),Pressure (bar),Density (mol/m3),Volume (m3/mol),Internal Energy (kJ/mol),Enthalpy (kJ/mol),Entropy (J/mol*K),Cv (J/mol*K),Cp (J/mol*K),Sound Spd. (m/s),Joule-Thomson (K/bar),Viscosity (uPa*s),Therm. Cond. (W/m*K),Phase,substance,substance_id,substance_name,Tc,Pc,rhoc,Vmc,Tr,Pr,Vmr
1229.3,1406.5,14239.0,7.023e-05,64.801,74.679,112.95,40.95,60.501,936.33,0.057968,56.931,0.29249,supercritical,H2O,C7732185,water,647.0,220.64,17.9,0.0558659217877095,1.9,6.3746374184191446,0.0012571169999999999
1229.3,1413.9,14308.0,6.9893e-05,64.771,74.653,112.89,40.968,60.552,937.42,0.057621,56.995,0.29338,supercritical,H2O,C7732185,water,647.0,220.64,17.9,0.0558659217877095,1.9,6.408176214648297,0.0012510847
1229.3,1421.2,14376.0,6.9559e-05,64.741,74.627,112.82,40.986,60.602,938.53,0.057275,57.058,0.29427,supercritical,H2O,C7732185,water,647.0,220.64,17.9,0.0558659217877095,1.9,6.441261783901378,0.0012451061
1229.3,1428.6,14445.0,6.923e-05,64.712,74.602,112.76,41.003,60.653,939.64,0.056931,57.121,0.29516,supercritical,H2O,C7732185,water,647.0,220.64,17.9,0.0558659217877095,1.9,6.4748005801305295,0.001239217
1229.3,1435.9,14513.0,6.8904e-05,64.683,74.577,112.7,41.021,60.702,940.75,0.056588,57.184,0.29605,supercritical,H2O,C7732185,water,647.0,220.64,17.9,0.0558659217877095,1.9,6.507886149383612,0.0012333816
1229.3,1443.3,14581.0,6.8582e-05,64.653,74.552,112.64,41.038,60.752,941.86,0.056246,57.248,0.29693,supercritical,H2O,C7732185,water,647.0,220.64,17.9,0.0558659217877095,1.9,6.541424945612763,0.0012276178
1229.3,1450.6,14649.0,6.8264e-05,64.624,74.526,112.58,41.056,60.8,942.99,0.055906,57.311,0.29782,supercritical,H2O,C7732185,water,647.0,220.64,17.9,0.0558659217877095,1.9,6.574510514865845,0.0012219255999999998
1229.3,1458.0,14717.0,6.7949e-05,64.595,74.502,112.51,41.073,60.849,944.11,0.055567,57.374,0.2987,supercritical,H2O,C7732185,water,647.0,220.64,17.9,0.0558659217877095,1.9,6.608049311094997,0.0012162871
1229.3,1465.3,14785.0,6.7638e-05,64.566,74.477,112.45,41.09,60.897,945.24,0.055229,57.437,0.29958,supercritical,H2O,C7732185,water,647.0,220.64,17.9,0.0558659217877095,1.9,6.641134880348078,0.0012107202
1229.3,1472.7,14852.0,6.733e-05,64.537,74.452,112.39,41.108,60.944,946.38,0.054893,57.5,0.30046,supercritical,H2O,C7732185,water,647.0,220.64,17.9,0.0558659217877095,1.9,6.67467367657723,0.0012052069999999998
1229.3,1480.0,14920.0,6.7026e-05,64.508,74.428,112.33,41.125,60.991,947.51,0.054558,57.563,0.30134,supercritical,H2O,C7732185,water,647.0,220.64,17.9,0.0558659217877095,1.9,6.707759245830312,0.0011997654
1229.3,1487.4,14987.0,6.6725e-05,64.479,74.403,112.27,41.142,61.038,948.66,0.054224,57.627,0.30221,supercritical,H2O,C7732185,water,647.0,220.64,17.9,0.0558659217877095,1.9,6.741298042059464,0.0011943775
1229.3,1494.7,15054.0,6.6427e-05,64.45,74.379,112.21,41.159,61.084,949.8,0.053892,57.69,0.30309,supercritical,H2O,C7732185,water,647.0,220.64,17.9,0.0558659217877095,1.9,6.774383611312546,0.0011890433
1229.3,1502.1,15121.0,6.6132e-05,64.421,74.355,112.16,41.175,61.129,950.96,0.053561,57.753,0.30396,supercritical,H2O,C7732185,water,647.0,220.64,17.9,0.0558659217877095,1.9,6.807922407541697,0.0011837628
1229.3,1509.4,15188.0,6.5841e-05,64.393,74.331,112.1,41.192,61.174,952.11,0.053231,57.816,0.30483,supercritical,H2O,C7732185,water,647.0,220.64,17.9,0.0558659217877095,1.9,6.84100797679478,0.0011785538999999998
1229.3,1516.8,15255.0,6.5553e-05,64.364,74.307,112.04,41.209,61.219,953.27,0.052903,57.879,0.30571,supercritical,H2O,C7732185,water,647.0,220.64,17.9,0.0558659217877095,1.9,6.874546773023931,0.0011733987
1229.3,1524.1,15321.0,6.5268e-05,64.336,74.283,111.98,41.226,61.263,954.43,0.052576,57.942,0.30657,supercritical,H2O,C7732185,water,647.0,220.64,17.9,0.0558659217877095,1.9,6.9076323422770125,0.0011682971999999999
1229.3,1531.5,15388.0,6.4986e-05,64.307,74.26,111.92,41.242,61.307,955.6,0.05225,58.005,0.30744,supercritical,H2O,C7732185,water,647.0,220.64,17.9,0.0558659217877095,1.9,6.9411711385061645,0.0011632494
1229.3,1538.8,15454.0,6.4707e-05,64.279,74.236,111.86,41.259,61.351,956.77,0.051926,58.068,0.30831,supercritical,H2O,C7732185,water,647.0,220.64,17.9,0.0558659217877095,1.9,6.974256707759246,0.0011582553
1229.3,1546.1,15520.0,6.4431e-05,64.251,74.213,111.81,41.275,61.393,957.95,0.051603,58.131,0.30917,supercritical,H2O,C7732185,water,647.0,220.64,17.9,0.0558659217877095,1.9,7.007342277012328,0.0011533148999999998
1229.3,1553.5,15586.0,6.4158e-05,64.223,74.19,111.75,41.291,61.436,959.13,0.051282,58.194,0.31003,supercritical,H2O,C7732185,water,647.0,220.64,17.9,0.0558659217877095,1.9,7.04088107324148,0.0011484282
1229.3,1560.8,15652.0,6.3888e-05,64.195,74.167,111.69,41.307,61.478,960.31,0.050962,58.256,0.31089,supercritical,H2O,C7732185,water,647.0,220.64,17.9,0.0558659217877095,1.9,7.073966642494561,0.0011435952
1229.3,1568.2,15718.0,6.3621e-05,64.167,74.144,111.63,41.324,61.52,961.5,0.050643,58.319,0.31175,supercritical,H2O,C7732185,water,647.0,220.64,17.9,0.0558659217877095,1.9,7.107505438723713,0.0011388159000000001
1229.3,1575.5,15784.0,6.3356e-05,64.139,74.121,111.58,41.34,61.561,962.69,0.050325,58.382,0.31261,supercritical,H2O,C7732185,water,647.0,220.64,17.9,0.0558659217877095,1.9,7.140591007976795,0.0011340723999999998
1229.3,1582.9,15849.0,6.3095e-05,64.111,74.098,111.52,41.356,61.601,963.89,0.050009,58.445,0.31347,supercritical,H2O,C7732185,water,647.0,220.64,17.9,0.0558659217877095,1.9,7.174129804205947,0.0011294005
1229.3,1590.2,15915.0,6.2836e-05,64.083,74.075,111.47,41.372,61.642,965.09,0.049695,58.508,0.31432,supercritical,H2O,C7732185,water,647.0,220.64,17.9,0.0558659217877095,1.9,7.207215373459029,0.0011247644
1229.3,1597.6,15980.0,6.2579e-05,64.055,74.053,111.41,41.387,61.682,966.29,0.049381,58.571,0.31518,supercritical,H2O,C7732185,water,647.0,220.64,17.9,0.0558659217877095,1.9,7.24075416968818,0.0011201641
1229.3,1604.9,16045.0,6.2326e-05,64.028,74.031,111.35,41.403,61.721,967.5,0.049069,58.633,0.31603,supercritical,H2O,C7732185,water,647.0,220.64,17.9,0.0558659217877095,1.9,7.273839738941263,0.0011156354
1229.3,1612.3,16110.0,6.2075e-05,64.0,74.009,111.3,41.419,61.76,968.71,0.048758,58.696,0.31688,supercritical,H2O,C7732185,water,647.0,220.64,17.9,0.0558659217877095,1.9,7.307378535170414,0.0011111425
1229.3,1619.6,16174.0,6.1826e-05,63.973,73.986,111.24,41.434,61.799,969.92,0.048449,58.759,0.31772,supercritical,H2O,C7732185,water,647.0,220.64,17.9,0.0558659217877095,1.9,7.3404641044234955,0.0011066854
1229.3,1627.0,16239.0,6.158e-05,63.945,73.965,111.19,41.45,61.837,971.14,0.048141,58.822,0.31857,supercritical,H2O,C7732185,water,647.0,220.64,17.9,0.0558659217877095,1.9,7.3740029006526475,0.001102282
1229.3,1634.3,16303.0,6.1337e-05,63.918,73.943,111.13,41.466,61.875,972.36,0.047834,58.884,0.31942,supercritical,H2O,C7732185,water,647.0,220.64,17.9,0.0558659217877095,1.9,7.407088469905729,0.0010979323
1229.3,1641.7,16368.0,6.1096e-05,63.891,73.921,111.08,41.481,61.912,973.58,0.047529,58.947,0.32026,supercritical,H2O,C7732185,water,647.0,220.64,17.9,0.0558659217877095,1.9,7.440627266134881,0.0010936184
1229.3,1649.0,16432.0,6.0857e-05,63.864,73.899,111.03,41.496,61.949,974.81,0.047225,59.009,0.3211,supercritical,H2O,C7732185,water,647.0,220.64,17.9,0.0558659217877095,1.9,7.473712835387963,0.0010893403
1229.3,1656.4,16496.0,6.0621e-05,63.837,73.878,110.97,41.512,61.985,976.04,0.046923,59.072,0.32194,supercritical,H2O,C7732185,water,647.0,220.64,17.9,0.0558659217877095,1.9,7.507251631617114,0.0010851158999999999
1229.3,1663.7,16560.0,6.0387e-05,63.81,73.857,110.92,41.527,62.021,977.28,0.046621,59.135,0.32278,supercritical,H2O,C7732185,water,647.0,220.64,17.9,0.0558659217877095,1.9,7.540337200870196,0.0010809273
1229.3,1671.1,16623.0,6.0156e-05,63.783,73.836,110.87,41.542,62.057,978.52,0.046321,59.197,0.32361,supercritical,H2O,C7732185,water,647.0,220.64,17.9,0.0558659217877095,1.9,7.573875997099347,0.0010767924
1229.3,1678.4,16687.0,5.9927e-05,63.756,73.814,110.81,41.557,62.092,979.76,0.046023,59.26,0.32445,supercritical,H2O,C7732185,water,647.0,220.64,17.9,0.0558659217877095,1.9,7.60696156635243,0.0010726932999999999
1229.3,1685.8,16750.0,5.97e-05,63.729,73.794,110.76,41.572,62.127,981.01,0.045726,59.322,0.32528,supercritical,H2O,C7732185,water,647.0,220.64,17.9,0.0558659217877095,1.9,7.640500362581581,0.0010686299999999999
1229.3,1693.1,16814.0,5.9475e-05,63.703,73.773,110.71,41.587,62.162,982.26,0.04543,59.385,0.32611,supercritical,H2O,C7732185,water,647.0,220.64,17.9,0.0558659217877095,1.9,7.673585931834663,0.0010646025
1229.3,1700.5,16877.0,5.9253e-05,63.676,73.752,110.66,41.602,62.196,983.51,0.045135,59.447,0.32694,supercritical,H2O,C7732185,water,647.0,220.64,17.9,0.0558659217877095,1.9,7.707124728063815,0.0010606287
1229.3,1707.8,16940.0,5.9033e-05,63.65,73.731,110.6,41.616,62.23,984.76,0.044842,59.51,0.32777,supercritical,H2O,C7732185,water,647.0,220.64,17.9,0.0558659217877095,1.9,7.740210297316897,0.0010566907
1229.3,1715.2,17003.0,5.8815e-05,63.623,73.711,110.55,41.631,62.263,986.02,0.04455,59.572,0.3286,supercritical,H2O,C7732185,water,647.0,220.64,17.9,0.0558659217877095,1.9,7.773749093546049,0.0010527885
1229.3,1722.5,17065.0,5.8599e-05,63.597,73.691,110.5,41.646,62.296,987.28,0.04426,59.635,0.32942,supercritical,H2O,C7732185,water,647.0,220.64,17.9,0.0558659217877095,1.9,7.8068346627991305,0.0010489221
1229.3,1729.9,17128.0,5.8385e-05,63.571,73.67,110.45,41.66,62.328,988.55,0.043971,59.697,0.33025,supercritical,H2O,C7732185,water,647.0,220.64,17.9,0.0558659217877095,1.9,7.8403734590282825,0.0010450915
1229.3,1737.2,17190.0,5.8173e-05,63.545,73.65,110.4,41.675,62.361,989.82,0.043683,59.759,0.33107,supercritical,H2O,C7732185,water,647.0,220.64,17.9,0.0558659217877095,1.9,7.873459028281364,0.0010412967
1229.3,1744.6,17252.0,5.7963e-05,63.518,73.63,110.35,41.689,62.392,991.09,0.043396,59.822,0.33189,supercritical,H2O,C7732185,water,647.0,220.64,17.9,0.0558659217877095,1.9,7.906997824510515,0.0010375376999999999
1229.3,1751.9,17314.0,5.7755e-05,63.492,73.611,110.3,41.704,62.424,992.36,0.043111,59.884,0.33271,supercritical,H2O,C7732185,water,647.0,220.64,17.9,0.0558659217877095,1.9,7.940083393763597,0.0010338144999999998
1229.3,1759.3,17376.0,5.7549e-05,63.467,73.591,110.25,41.718,62.455,993.64,0.042827,59.946,0.33352,supercritical,H2O,C7732185,water,647.0,220.64,17.9,0.0558659217877095,1.9,7.973622189992748,0.0010301270999999999
1229.3,1766.6,17438.0,5.7345e-05,63.441,73.571,110.19,41.732,62.485,994.92,0.042545,60.009,0.33434,supercritical,H2O,C7732185,water,647.0,220.64,17.9,0.0558659217877095,1.9,8.006707759245831,0.0010264755
1229.3,1773.9,17500.0,5.7144e-05,63.415,73.552,110.14,41.746,62.516,996.2,0.042264,60.071,0.33515,supercritical,H2O,C7732185,water,647.0,220.64,17.9,0.0558659217877095,1.9,8.039793328498913,0.0010228776
1229.3,1781.3,17561.0,5.6944e-05,63.389,73.532,110.1,41.761,62.546,997.49,0.041984,60.133,0.33596,supercritical,H2O,C7732185,water,647.0,220.64,17.9,0.0558659217877095,1.9,8.073332124728065,0.0010192976
1229.3,1788.6,17623.0,5.6745e-05,63.363,73.513,110.05,41.775,62.575,998.77,0.041706,60.195,0.33677,supercritical,H2O,C7732185,water,647.0,220.64,17.9,0.0558659217877095,1.9,8.106417693981145,0.0010157355
1229.3,1796.0,17684.0,5.6549e-05,63.338,73.494,110.0,41.789,62.604,1000.1,0.041428,60.257,0.33758,supercritical,H2O,C7732185,water,647.0,220.64,17.9,0.0558659217877095,1.9,8.139956490210297,0.0010122271
1229.3,1803.3,17745.0,5.6355e-05,63.312,73.475,109.95,41.803,62.633,1001.4,0.041153,60.32,0.33839,supercritical,H2O,C7732185,water,647.0,220.64,17.9,0.0558659217877095,1.9,8.173042059463379,0.0010087545
1229.3,1810.7,17806.0,5.6162e-05,63.287,73.456,109.9,41.816,62.662,1002.7,0.040878,60.382,0.33919,supercritical,H2O,C7732185,water,647.0,220.64,17.9,0.0558659217877095,1.9,8.20658085569253,0.0010052998
1229.3,1818.0,17866.0,5.5971e-05,63.262,73.437,109.85,41.83,62.69,1004.0,0.040605,60.444,0.34,supercritical,H2O,C7732185,water,647.0,220.64,17.9,0.0558659217877095,1.9,8.239666424945613,0.0010018809
1229.3,1825.4,17927.0,5.5782e-05,63.236,73.419,109.8,41.844,62.718,1005.3,0.040333,60.506,0.3408,supercritical,H2O,C7732185,water,647.0,220.64,17.9,0.0558659217877095,1.9,8.273205221174765,0.0009984978
1229.3,1832.7,17987.0,5.5595e-05,63.211,73.4,109.75,41.858,62.745,1006.6,0.040063,60.568,0.3416,supercritical,H2O,C7732185,water,647.0,220.64,17.9,0.0558659217877095,1.9,8.306290790427846,0.0009951505
1229.3,1840.1,18048.0,5.5409e-05,63.186,73.382,109.7,41.871,62.772,1007.9,0.039794,60.63,0.3424,supercritical,H2O,C7732185,water,647.0,220.64,17.9,0.0558659217877095,1.9,8.339829586656998,0.0009918211
1229.3,1847.4,18108.0,5.5225e-05,63.161,73.364,109.66,41.885,62.799,1009.2,0.039526,60.692,0.3432,supercritical,H2O,C7732185,water,647.0,220.64,17.9,0.0558659217877095,1.9,8.37291515591008,0.0009885274999999998
1229.3,1854.8,18168.0,5.5043e-05,63.136,73.345,109.61,41.898,62.825,1010.5,0.039259,60.754,0.34399,supercritical,H2O,C7732185,water,647.0,220.64,17.9,0.0558659217877095,1.9,8.406453952139232,0.0009852697
1229.3,1862.1,18228.0,5.4862e-05,63.111,73.327,109.56,41.912,62.852,1011.8,0.038994,60.816,0.34478,supercritical,H2O,C7732185,water,647.0,220.64,17.9,0.0558659217877095,1.9,8.439539521392314,0.0009820298
1229.3,1869.5,18287.0,5.4683e-05,63.087,73.309,109.51,41.925,62.877,1013.1,0.03873,60.878,0.34558,supercritical,H2O,C7732185,water,647.0,220.64,17.9,0.0558659217877095,1.9,8.473078317621466,0.0009788256999999998
1229.3,1876.8,18347.0,5.4505e-05,63.062,73.292,109.47,41.938,62.903,1014.4,0.038468,60.94,0.34637,supercritical,H2O,C7732185,water,647.0,220.64,17.9,0.0558659217877095,1.9,8.506163886874548,0.0009756395
1229.3,1884.2,18406.0,5.433e-05,63.037,73.274,109.42,41.952,62.928,1015.8,0.038207,61.002,0.34716,supercritical,H2O,C7732185,water,647.0,220.64,17.9,0.0558659217877095,1.9,8.5397026831037,0.000972507
1229.3,1891.5,18465.0,5.4155e-05,63.013,73.256,109.37,41.965,62.953,1017.1,0.037947,61.064,0.34794,supercritical,H2O,C7732185,water,647.0,220.64,17.9,0.0558659217877095,1.9,8.57278825235678,0.0009693744999999999
1229.3,1898.9,18524.0,5.3983e-05,62.988,73.239,109.33,41.978,62.977,1018.4,0.037688,61.126,0.34873,supercritical,H2O,C7732185,water,647.0,220.64,17.9,0.0558659217877095,1.9,8.606327048585932,0.0009662957
1229.3,1906.2,18583.0,5.3812e-05,62.964,73.221,109.28,41.991,63.001,1019.7,0.037431,61.188,0.34951,supercritical,H2O,C7732185,water,647.0,220.64,17.9,0.0558659217877095,1.9,8.639412617839014,0.0009632347999999999
1229.3,1913.6,18642.0,5.3642e-05,62.939,73.204,109.23,42.004,63.025,1021.1,0.037175,61.25,0.3503,supercritical,H2O,C7732185,water,647.0,220.64,17.9,0.0558659217877095,1.9,8.672951414068166,0.0009601917999999999
1229.3,1920.9,18701.0,5.3474e-05,62.915,73.187,109.19,42.017,63.049,1022.4,0.03692,61.312,0.35108,supercritical,H2O,C7732185,water,647.0,220.64,17.9,0.0558659217877095,1.9,8.706036983321248,0.0009571846
1229.3,1928.3,18759.0,5.3307e-05,62.891,73.17,109.14,42.03,63.072,1023.7,0.036667,61.373,0.35186,supercritical,H2O,C7732185,water,647.0,220.64,17.9,0.0558659217877095,1.9,8.7395757795504,0.0009541953
1229.3,1935.6,18818.0,5.3142e-05,62.867,73.153,109.1,42.043,63.095,1025.1,0.036415,61.435,0.35263,supercritical,H2O,C7732185,water,647.0,220.64,17.9,0.0558659217877095,1.9,8.772661348803481,0.0009512418
1229.3,1943.0,18876.0,5.2978e-05,62.843,73.136,109.05,42.056,63.118,1026.4,0.036164,61.497,0.35341,supercritical,H2O,C7732185,water,647.0,220.64,17.9,0.0558659217877095,1.9,8.806200145032633,0.0009483062
1229.3,1950.3,18934.0,5.2816e-05,62.819,73.119,109.01,42.069,63.14,1027.8,0.035914,61.559,0.35418,supercritical,H2O,C7732185,water,647.0,220.64,17.9,0.0558659217877095,1.9,8.839285714285715,0.0009454063999999999
1229.3,1957.7,18992.0,5.2655e-05,62.795,73.103,108.96,42.081,63.162,1029.1,0.035666,61.62,0.35496,supercritical,H2O,C7732185,water,647.0,220.64,17.9,0.0558659217877095,1.9,8.872824510514867,0.0009425245
1229.3,1965.0,19049.0,5.2495e-05,62.771,73.086,108.92,42.094,63.184,1030.4,0.035419,61.682,0.35573,supercritical,H2O,C7732185,water,647.0,220.64,17.9,0.0558659217877095,1.9,8.90591007976795,0.0009396604999999999
1229.3,1972.4,19107.0,5.2337e-05,62.747,73.07,108.87,42.107,63.205,1031.8,0.035174,61.744,0.3565,supercritical,H2O,C7732185,water,647.0,220.64,17.9,0.0558659217877095,1.9,8.939448875997101,0.0009368322999999998
1229.3,1979.7,19164.0,5.218e-05,62.723,73.054,108.83,42.119,63.226,1033.1,0.034929,61.806,0.35727,supercritical,H2O,C7732185,water,647.0,220.64,17.9,0.0558659217877095,1.9,8.972534445250181,0.000934022
1229.3,1987.1,19222.0,5.2024e-05,62.7,73.037,108.78,42.132,63.247,1034.5,0.034686,61.867,0.35803,supercritical,H2O,C7732185,water,647.0,220.64,17.9,0.0558659217877095,1.9,9.006073241479333,0.0009312296
1229.3,1994.4,19279.0,5.187e-05,62.676,73.021,108.74,42.144,63.268,1035.8,0.034445,61.929,0.3588,supercritical,H2O,C7732185,water,647.0,220.64,17.9,0.0558659217877095,1.9,9.039158810732415,0.000928473
1229.3,2001.7,19336.0,5.1717e-05,62.653,73.005,108.69,42.156,63.288,1037.2,0.034204,61.99,0.35956,supercritical,H2O,C7732185,water,647.0,220.64,17.9,0.0558659217877095,1.9,9.072244379985497,0.0009257342999999999
1229.3,2009.1,19393.0,5.1566e-05,62.629,72.99,108.65,42.169,63.308,1038.5,0.033965,62.052,0.36032,supercritical,H2O,C7732185,water,647.0,220.64,17.9,0.0558659217877095,1.9,9.105783176214649,0.0009230314
1229.3,2016.4,19449.0,5.1415e-05,62.606,72.974,108.61,42.181,63.328,1039.9,0.033727,62.114,0.36108,supercritical,H2O,C7732185,water,647.0,220.64,17.9,0.0558659217877095,1.9,9.13886874546773,0.0009203284999999999
1229.3,2023.8,19506.0,5.1266e-05,62.583,72.958,108.56,42.193,63.348,1041.3,0.03349,62.175,0.36184,supercritical,H2O,C7732185,water,647.0,220.64,17.9,0.0558659217877095,1.9,9.172407541696883,0.0009176614
1229.3,2031.1,19562.0,5.1118e-05,62.56,72.943,108.52,42.205,63.367,1042.6,0.033255,62.237,0.3626,supercritical,H2O,C7732185,water,647.0,220.64,17.9,0.0558659217877095,1.9,9.205493110949964,0.0009150122
1229.3,2038.5,19619.0,5.0972e-05,62.537,72.927,108.48,42.218,63.386,1044.0,0.033021,62.298,0.36336,supercritical,H2O,C7732185,water,647.0,220.64,17.9,0.0558659217877095,1.9,9.239031907179116,0.0009123988
1229.3,2045.8,19675.0,5.0826e-05,62.514,72.912,108.43,42.23,63.405,1045.3,0.032788,62.36,0.36411,supercritical,H2O,C7732185,water,647.0,220.64,17.9,0.0558659217877095,1.9,9.272117476432198,0.0009097853999999999
1229.3,2053.2,19731.0,5.0682e-05,62.491,72.897,108.39,42.242,63.423,1046.7,0.032556,62.421,0.36486,supercritical,H2O,C7732185,water,647.0,220.64,17.9,0.0558659217877095,1.9,9.305656272661349,0.0009072078
1229.3,2060.5,19787.0,5.0539e-05,62.468,72.881,108.35,42.254,63.442,1048.1,0.032326,62.483,0.36561,supercritical,H2O,C7732185,water,647.0,220.64,17.9,0.0558659217877095,1.9,9.338741841914432,0.0009046480999999999
1229.3,2067.9,19842.0,5.0397e-05,62.445,72.866,108.31,42.266,63.46,1049.4,0.032097,62.544,0.36636,supercritical,H2O,C7732185,water,647.0,220.64,17.9,0.0558659217877095,1.9,9.372280638143584,0.0009021063
1229.3,2075.2,19898.0,5.0257e-05,62.422,72.852,108.26,42.278,63.478,1050.8,0.031869,62.606,0.36711,supercritical,H2O,C7732185,water,647.0,220.64,17.9,0.0558659217877095,1.9,9.405366207396664,0.0008996002999999999
1229.3,2082.6,19953.0,5.0117e-05,62.399,72.837,108.22,42.289,63.495,1052.2,0.031642,62.667,0.36786,supercritical,H2O,C7732185,water,647.0,220.64,17.9,0.0558659217877095,1.9,9.438905003625816,0.0008970943
1229.3,2089.9,20008.0,4.9979e-05,62.377,72.822,108.18,42.301,63.512,1053.5,0.031417,62.728,0.3686,supercritical,H2O,C7732185,water,647.0,220.64,17.9,0.0558659217877095,1.9,9.471990572878898,0.0008946240999999999
1229.3,2097.3,20064.0,4.9842e-05,62.354,72.807,108.14,42.313,63.529,1054.9,0.031193,62.79,0.36935,supercritical,H2O,C7732185,water,647.0,220.64,17.9,0.0558659217877095,1.9,9.50552936910805,0.0008921717999999999