Temperature (K),Pressure (bar),Density (mol/m3),Volume (m3/mol),Internal Energy (kJ/mol),Enthalpy (kJ/mol),Entropy (J/mol*K),Cv (J/mol*K),Cp (J/mol*K),Sound Spd. (m/s),Joule-Thomson (K/bar),Viscosity (uPa*s),Therm. Cond. (W/m*K),Phase,substance,substance_id,substance_name,Tc,Pc,rhoc,Vmc,Tr,Pr,Vmr
970.5,4184.2,39207.0,2.5506e-05,43.442,54.114,84.65,45.861,67.696,1543.2,-0.0055067,93.992,0.64068,supercritical,H2O,C7732185,water,647.0,220.64,17.9,0.0558659217877095,1.5,18.96392313270486,0.0004565574
970.5,4191.5,39232.0,2.5489e-05,43.433,54.117,84.634,45.866,67.68,1544.5,-0.0055521,94.056,0.64134,supercritical,H2O,C7732185,water,647.0,220.64,17.9,0.0558659217877095,1.5,18.99700870195794,0.0004562531
970.5,4198.9,39257.0,2.5473e-05,43.424,54.12,84.618,45.871,67.664,1545.8,-0.0055973,94.12,0.642,supercritical,H2O,C7732185,water,647.0,220.64,17.9,0.0558659217877095,1.5,19.03054749818709,0.0004559667
970.5,4206.2,39282.0,2.5457e-05,43.415,54.122,84.601,45.875,67.648,1547.1,-0.0056423,94.184,0.64265,supercritical,H2O,C7732185,water,647.0,220.64,17.9,0.0558659217877095,1.5,19.063633067440175,0.00045568029999999997
970.5,4213.6,39307.0,2.5441e-05,43.406,54.125,84.585,45.88,67.633,1548.4,-0.0056871,94.247,0.64331,supercritical,H2O,C7732185,water,647.0,220.64,17.9,0.0558659217877095,1.5,19.097171863669328,0.00045539389999999994
970.5,4220.9,39332.0,2.5424e-05,43.397,54.128,84.568,45.885,67.617,1549.7,-0.0057318,94.311,0.64396,supercritical,H2O,C7732185,water,647.0,220.64,17.9,0.0558659217877095,1.5,19.130257432922406,0.0004550896
970.5,4228.3,39357.0,2.5408e-05,43.388,54.131,84.552,45.89,67.602,1551.0,-0.0057762,94.374,0.64461,supercritical,H2O,C7732185,water,647.0,220.64,17.9,0.0558659217877095,1.5,19.16379622915156,0.0004548032
970.5,4235.6,39382.0,2.5392e-05,43.379,54.134,84.536,45.894,67.586,1552.3,-0.0058204,94.437,0.64527,supercritical,H2O,C7732185,water,647.0,220.64,17.9,0.0558659217877095,1.5,19.196881798404643,0.00045451679999999997
970.5,4243.0,39407.0,2.5376e-05,43.37,54.137,84.52,45.899,67.571,1553.6,-0.0058645,94.5,0.64592,supercritical,H2O,C7732185,water,647.0,220.64,17.9,0.0558659217877095,1.5,19.230420594633795,0.00045423039999999994
970.5,4250.3,39432.0,2.536e-05,43.361,54.14,84.503,45.904,67.555,1554.9,-0.0059084,94.563,0.64657,supercritical,H2O,C7732185,water,647.0,220.64,17.9,0.0558659217877095,1.5,19.263506163886877,0.000453944
970.5,4257.7,39457.0,2.5344e-05,43.352,54.143,84.487,45.909,67.54,1556.2,-0.005952,94.625,0.64722,supercritical,H2O,C7732185,water,647.0,220.64,17.9,0.0558659217877095,1.5,19.297044960116025,0.0004536576
970.5,4265.0,39482.0,2.5328e-05,43.343,54.146,84.471,45.914,67.525,1557.5,-0.0059955,94.688,0.64788,supercritical,H2O,C7732185,water,647.0,220.64,17.9,0.0558659217877095,1.5,19.33013052936911,0.00045337119999999995
970.5,4272.4,39506.0,2.5312e-05,43.334,54.148,84.455,45.918,67.509,1558.7,-0.0060388,94.75,0.64853,supercritical,H2O,C7732185,water,647.0,220.64,17.9,0.0558659217877095,1.5,19.36366932559826,0.0004530848
970.5,4279.7,39531.0,2.5297e-05,43.325,54.151,84.439,45.923,67.494,1560.0,-0.006082,94.812,0.64918,supercritical,H2O,C7732185,water,647.0,220.64,17.9,0.0558659217877095,1.5,19.39675489485134,0.0004528162999999999
970.5,4287.1,39556.0,2.5281e-05,43.316,54.155,84.423,45.928,67.479,1561.3,-0.0061249,94.875,0.64983,supercritical,H2O,C7732185,water,647.0,220.64,17.9,0.0558659217877095,1.5,19.430293691080497,0.0004525299
970.5,4294.4,39580.0,2.5265e-05,43.308,54.158,84.407,45.932,67.464,1562.6,-0.0061677,94.937,0.65048,supercritical,H2O,C7732185,water,647.0,220.64,17.9,0.0558659217877095,1.5,19.463379260333575,0.00045224349999999997
970.5,4301.8,39605.0,2.525e-05,43.299,54.161,84.391,45.937,67.449,1563.9,-0.0062103,94.999,0.65113,supercritical,H2O,C7732185,water,647.0,220.64,17.9,0.0558659217877095,1.5,19.496918056562727,0.00045197499999999997
970.5,4309.1,39629.0,2.5234e-05,43.29,54.164,84.375,45.942,67.434,1565.1,-0.0062527,95.06,0.65177,supercritical,H2O,C7732185,water,647.0,220.64,17.9,0.0558659217877095,1.5,19.530003625815812,0.00045168859999999994
970.5,4316.5,39654.0,2.5218e-05,43.281,54.167,84.359,45.947,67.419,1566.4,-0.0062949,95.122,0.65242,supercritical,H2O,C7732185,water,647.0,220.64,17.9,0.0558659217877095,1.5,19.56354242204496,0.0004514022
970.5,4323.8,39678.0,2.5203e-05,43.273,54.17,84.343,45.951,67.404,1567.7,-0.0063369,95.183,0.65307,supercritical,H2O,C7732185,water,647.0,220.64,17.9,0.0558659217877095,1.5,19.596627991298043,0.00045113369999999996
970.5,4331.2,39702.0,2.5187e-05,43.264,54.173,84.327,45.956,67.389,1569.0,-0.0063788,95.245,0.65372,supercritical,H2O,C7732185,water,647.0,220.64,17.9,0.0558659217877095,1.5,19.630166787527195,0.0004508473
970.5,4338.5,39727.0,2.5172e-05,43.255,54.176,84.312,45.961,67.374,1570.2,-0.0064205,95.306,0.65436,supercritical,H2O,C7732185,water,647.0,220.64,17.9,0.0558659217877095,1.5,19.663252356780276,0.00045057879999999993
970.5,4345.9,39751.0,2.5157e-05,43.247,54.179,84.296,45.965,67.36,1571.5,-0.006462,95.367,0.65501,supercritical,H2O,C7732185,water,647.0,220.64,17.9,0.0558659217877095,1.5,19.69679115300943,0.0004503103
970.5,4353.2,39775.0,2.5141e-05,43.238,54.183,84.28,45.97,67.345,1572.8,-0.0065033,95.428,0.65565,supercritical,H2O,C7732185,water,647.0,220.64,17.9,0.0558659217877095,1.5,19.72987672226251,0.00045002389999999995
970.5,4360.6,39799.0,2.5126e-05,43.229,54.186,84.264,45.975,67.33,1574.1,-0.0065445,95.489,0.6563,supercritical,H2O,C7732185,water,647.0,220.64,17.9,0.0558659217877095,1.5,19.763415518491662,0.00044975539999999995
970.5,4367.9,39823.0,2.5111e-05,43.221,54.189,84.249,45.979,67.316,1575.3,-0.0065855,95.549,0.65694,supercritical,H2O,C7732185,water,647.0,220.64,17.9,0.0558659217877095,1.5,19.79650108774474,0.0004494869
970.5,4375.3,39847.0,2.5096e-05,43.212,54.192,84.233,45.984,67.301,1576.6,-0.0066263,95.61,0.65759,supercritical,H2O,C7732185,water,647.0,220.64,17.9,0.0558659217877095,1.5,19.830039883973896,0.0004492184
970.5,4382.6,39871.0,2.5081e-05,43.204,54.196,84.218,45.989,67.286,1577.8,-0.006667,95.67,0.65823,supercritical,H2O,C7732185,water,647.0,220.64,17.9,0.0558659217877095,1.5,19.863125453226978,0.00044894989999999996
970.5,4390.0,39895.0,2.5066e-05,43.195,54.199,84.202,45.993,67.272,1579.1,-0.0067075,95.73,0.65887,supercritical,H2O,C7732185,water,647.0,220.64,17.9,0.0558659217877095,1.5,19.89666424945613,0.00044868139999999996
970.5,4397.3,39919.0,2.5051e-05,43.187,54.202,84.186,45.998,67.257,1580.4,-0.0067478,95.791,0.65952,supercritical,H2O,C7732185,water,647.0,220.64,17.9,0.0558659217877095,1.5,19.92974981870921,0.0004484129
970.5,4404.7,39943.0,2.5036e-05,43.178,54.206,84.171,46.003,67.243,1581.6,-0.006788,95.851,0.66016,supercritical,H2O,C7732185,water,647.0,220.64,17.9,0.0558659217877095,1.5,19.96328861493836,0.00044814439999999996
970.5,4412.0,39967.0,2.5021e-05,43.17,54.209,84.155,46.007,67.229,1582.9,-0.006828,95.91,0.6608,supercritical,H2O,C7732185,water,647.0,220.64,17.9,0.0558659217877095,1.5,19.996374184191446,0.00044787589999999996