Temperature (K),Pressure (bar),Density (mol/m3),Volume (m3/mol),Internal Energy (kJ/mol),Enthalpy (kJ/mol),Entropy (J/mol*K),Cv (J/mol*K),Cp (J/mol*K),Sound Spd. (m/s),Joule-Thomson (K/bar),Viscosity (uPa*s),Therm. Cond. (W/m*K),Phase,substance,substance_id,substance_name,Tc,Pc,rhoc,Vmc,Tr,Pr,Vmr
547.52,677.04,13076.0,7.6476e-05,23.041,28.218,84.066,41.198,63.78,547.16,0.024621,52.68,0.074014,supercritical,CO2,C124389,carbon-dioxide,304.18,73.8,10.6,0.09433962264150944,1.8,9.173983739837398,0.0008106456
547.52,679.5,13105.0,7.6308e-05,23.029,28.215,84.025,41.203,63.781,548.2,0.024273,52.806,0.074144,supercritical,CO2,C124389,carbon-dioxide,304.18,73.8,10.6,0.09433962264150944,1.8,9.207317073170731,0.0008088648
547.52,681.96,13134.0,7.6141e-05,23.018,28.211,83.984,41.208,63.782,549.23,0.023927,52.932,0.074274,supercritical,CO2,C124389,carbon-dioxide,304.18,73.8,10.6,0.09433962264150944,1.8,9.240650406504066,0.0008070945999999999
547.52,684.42,13162.0,7.5976e-05,23.007,28.207,83.943,41.213,63.783,550.27,0.023584,53.058,0.074403,supercritical,CO2,C124389,carbon-dioxide,304.18,73.8,10.6,0.09433962264150944,1.8,9.273983739837398,0.0008053456
547.52,686.88,13191.0,7.5811e-05,22.996,28.203,83.902,41.218,63.784,551.31,0.023244,53.183,0.074533,supercritical,CO2,C124389,carbon-dioxide,304.18,73.8,10.6,0.09433962264150944,1.8,9.307317073170733,0.0008035965999999999
547.52,689.33,13219.0,7.5649e-05,22.985,28.2,83.862,41.223,63.785,552.34,0.022906,53.309,0.074661,supercritical,CO2,C124389,carbon-dioxide,304.18,73.8,10.6,0.09433962264150944,1.8,9.340514905149053,0.0008018793999999998
547.52,691.79,13247.0,7.5487e-05,22.974,28.196,83.821,41.228,63.785,553.38,0.02257,53.435,0.07479,supercritical,CO2,C124389,carbon-dioxide,304.18,73.8,10.6,0.09433962264150944,1.8,9.373848238482385,0.0008001622
547.52,694.25,13275.0,7.5327e-05,22.963,28.193,83.781,41.233,63.785,554.41,0.022237,53.56,0.074918,supercritical,CO2,C124389,carbon-dioxide,304.18,73.8,10.6,0.09433962264150944,1.8,9.407181571815718,0.0007984662
547.52,696.71,13304.0,7.5168e-05,22.952,28.189,83.741,41.238,63.786,555.44,0.021907,53.686,0.075047,supercritical,CO2,C124389,carbon-dioxide,304.18,73.8,10.6,0.09433962264150944,1.8,9.440514905149053,0.0007967807999999999
547.52,699.17,13331.0,7.501e-05,22.941,28.186,83.701,41.243,63.786,556.48,0.021579,53.811,0.075174,supercritical,CO2,C124389,carbon-dioxide,304.18,73.8,10.6,0.09433962264150944,1.8,9.473848238482384,0.000795106
547.52,701.63,13359.0,7.4854e-05,22.931,28.183,83.661,41.248,63.786,557.51,0.021253,53.937,0.075302,supercritical,CO2,C124389,carbon-dioxide,304.18,73.8,10.6,0.09433962264150944,1.8,9.50718157181572,0.0007934524
547.52,704.08,13387.0,7.4699e-05,22.92,28.179,83.622,41.253,63.786,558.54,0.02093,54.062,0.075429,supercritical,CO2,C124389,carbon-dioxide,304.18,73.8,10.6,0.09433962264150944,1.8,9.54037940379404,0.0007918093999999999
547.52,706.54,13415.0,7.4545e-05,22.909,28.176,83.582,41.258,63.786,559.57,0.020609,54.187,0.075557,supercritical,CO2,C124389,carbon-dioxide,304.18,73.8,10.6,0.09433962264150944,1.8,9.573712737127371,0.000790177
547.52,709.0,13442.0,7.4393e-05,22.898,28.173,83.543,41.263,63.786,560.6,0.020291,54.312,0.075683,supercritical,CO2,C124389,carbon-dioxide,304.18,73.8,10.6,0.09433962264150944,1.8,9.607046070460704,0.0007885658
547.52,711.46,13470.0,7.4241e-05,22.888,28.17,83.504,41.268,63.785,561.63,0.019974,54.437,0.07581,supercritical,CO2,C124389,carbon-dioxide,304.18,73.8,10.6,0.09433962264150944,1.8,9.64037940379404,0.0007869545999999999
547.52,713.92,13497.0,7.4091e-05,22.877,28.166,83.465,41.273,63.785,562.66,0.019661,54.562,0.075936,supercritical,CO2,C124389,carbon-dioxide,304.18,73.8,10.6,0.09433962264150944,1.8,9.67371273712737,0.0007853646
547.52,716.38,13524.0,7.3942e-05,22.866,28.163,83.426,41.278,63.784,563.68,0.019349,54.687,0.076063,supercritical,CO2,C124389,carbon-dioxide,304.18,73.8,10.6,0.09433962264150944,1.8,9.707046070460706,0.0007837852
547.52,718.83,13551.0,7.3794e-05,22.856,28.16,83.387,41.283,63.783,564.71,0.01904,54.812,0.076189,supercritical,CO2,C124389,carbon-dioxide,304.18,73.8,10.6,0.09433962264150944,1.8,9.740243902439026,0.0007822164
547.52,721.29,13578.0,7.3647e-05,22.845,28.157,83.349,41.288,63.783,565.73,0.018733,54.937,0.076314,supercritical,CO2,C124389,carbon-dioxide,304.18,73.8,10.6,0.09433962264150944,1.8,9.773577235772358,0.0007806581999999999
547.52,723.75,13605.0,7.3501e-05,22.835,28.155,83.31,41.293,63.782,566.76,0.018428,55.061,0.07644,supercritical,CO2,C124389,carbon-dioxide,304.18,73.8,10.6,0.09433962264150944,1.8,9.80691056910569,0.0007791106
547.52,726.21,13632.0,7.3357e-05,22.824,28.152,83.272,41.298,63.781,567.78,0.018125,55.186,0.076565,supercritical,CO2,C124389,carbon-dioxide,304.18,73.8,10.6,0.09433962264150944,1.8,9.840243902439026,0.0007775841999999999
547.52,728.67,13659.0,7.3213e-05,22.814,28.149,83.234,41.303,63.78,568.8,0.017825,55.31,0.07669,supercritical,CO2,C124389,carbon-dioxide,304.18,73.8,10.6,0.09433962264150944,1.8,9.873577235772357,0.0007760578
547.52,731.13,13685.0,7.3071e-05,22.804,28.146,83.196,41.308,63.779,569.83,0.017526,55.435,0.076815,supercritical,CO2,C124389,carbon-dioxide,304.18,73.8,10.6,0.09433962264150944,1.8,9.906910569105692,0.0007745526
547.52,733.58,13712.0,7.293e-05,22.793,28.143,83.158,41.313,63.778,570.85,0.01723,55.559,0.076939,supercritical,CO2,C124389,carbon-dioxide,304.18,73.8,10.6,0.09433962264150944,1.8,9.940108401084013,0.0007730579999999999
547.52,736.04,13738.0,7.2789e-05,22.783,28.141,83.121,41.317,63.776,571.87,0.016936,55.683,0.077064,supercritical,CO2,C124389,carbon-dioxide,304.18,73.8,10.6,0.09433962264150944,1.8,9.973441734417344,0.0007715633999999999
547.52,738.5,13765.0,7.265e-05,22.773,28.138,83.083,41.322,63.775,572.89,0.016645,55.807,0.077188,supercritical,CO2,C124389,carbon-dioxide,304.18,73.8,10.6,0.09433962264150944,1.8,10.006775067750677,0.00077009
547.52,740.96,13791.0,7.2512e-05,22.763,28.135,83.046,41.327,63.774,573.9,0.016355,55.931,0.077311,supercritical,CO2,C124389,carbon-dioxide,304.18,73.8,10.6,0.09433962264150944,1.8,10.040108401084012,0.0007686272
547.52,743.42,13817.0,7.2375e-05,22.752,28.133,83.009,41.332,63.772,574.92,0.016067,56.055,0.077435,supercritical,CO2,C124389,carbon-dioxide,304.18,73.8,10.6,0.09433962264150944,1.8,10.073441734417344,0.0007671749999999999
547.52,745.88,13843.0,7.2239e-05,22.742,28.13,82.972,41.337,63.771,575.94,0.015781,56.179,0.077558,supercritical,CO2,C124389,carbon-dioxide,304.18,73.8,10.6,0.09433962264150944,1.8,10.106775067750679,0.0007657333999999999
547.52,748.33,13869.0,7.2104e-05,22.732,28.128,82.935,41.342,63.769,576.95,0.015498,56.303,0.077682,supercritical,CO2,C124389,carbon-dioxide,304.18,73.8,10.6,0.09433962264150944,1.8,10.139972899728999,0.0007643023999999999
547.52,750.79,13895.0,7.197e-05,22.722,28.126,82.898,41.347,63.767,577.97,0.015216,56.426,0.077805,supercritical,CO2,C124389,carbon-dioxide,304.18,73.8,10.6,0.09433962264150944,1.8,10.17330623306233,0.000762882
547.52,753.25,13920.0,7.1837e-05,22.712,28.123,82.862,41.351,63.765,578.98,0.014937,56.55,0.077927,supercritical,CO2,C124389,carbon-dioxide,304.18,73.8,10.6,0.09433962264150944,1.8,10.206639566395664,0.0007614721999999999
547.52,755.71,13946.0,7.1705e-05,22.702,28.121,82.825,41.356,63.764,579.99,0.014659,56.673,0.07805,supercritical,CO2,C124389,carbon-dioxide,304.18,73.8,10.6,0.09433962264150944,1.8,10.239972899728999,0.000760073
547.52,758.17,13972.0,7.1573e-05,22.692,28.119,82.789,41.361,63.762,581.01,0.014384,56.796,0.078172,supercritical,CO2,C124389,carbon-dioxide,304.18,73.8,10.6,0.09433962264150944,1.8,10.27330623306233,0.0007586737999999999
547.52,760.63,13997.0,7.1443e-05,22.682,28.116,82.753,41.366,63.76,582.02,0.01411,56.92,0.078294,supercritical,CO2,C124389,carbon-dioxide,304.18,73.8,10.6,0.09433962264150944,1.8,10.306639566395665,0.0007572957999999999
547.52,763.08,14023.0,7.1314e-05,22.672,28.114,82.717,41.371,63.758,583.03,0.013838,57.043,0.078416,supercritical,CO2,C124389,carbon-dioxide,304.18,73.8,10.6,0.09433962264150944,1.8,10.339837398373986,0.0007559283999999999
547.52,765.54,14048.0,7.1186e-05,22.662,28.112,82.681,41.375,63.755,584.03,0.013568,57.166,0.078538,supercritical,CO2,C124389,carbon-dioxide,304.18,73.8,10.6,0.09433962264150944,1.8,10.373170731707317,0.0007545716
547.52,768.0,14073.0,7.1058e-05,22.653,28.11,82.645,41.38,63.753,585.04,0.0133,57.289,0.078659,supercritical,CO2,C124389,carbon-dioxide,304.18,73.8,10.6,0.09433962264150944,1.8,10.40650406504065,0.0007532147999999999
547.52,770.46,14098.0,7.0932e-05,22.643,28.108,82.609,41.385,63.751,586.05,0.013034,57.412,0.078781,supercritical,CO2,C124389,carbon-dioxide,304.18,73.8,10.6,0.09433962264150944,1.8,10.439837398373985,0.0007518792
547.52,772.92,14123.0,7.0806e-05,22.633,28.106,82.574,41.39,63.749,587.06,0.01277,57.535,0.078902,supercritical,CO2,C124389,carbon-dioxide,304.18,73.8,10.6,0.09433962264150944,1.8,10.473170731707317,0.0007505436
547.52,775.38,14148.0,7.0681e-05,22.623,28.104,82.538,41.394,63.746,588.06,0.012508,57.657,0.079022,supercritical,CO2,C124389,carbon-dioxide,304.18,73.8,10.6,0.09433962264150944,1.8,10.506504065040652,0.0007492185999999999
547.52,777.83,14173.0,7.0558e-05,22.614,28.102,82.503,41.399,63.744,589.07,0.012247,57.78,0.079143,supercritical,CO2,C124389,carbon-dioxide,304.18,73.8,10.6,0.09433962264150944,1.8,10.539701897018972,0.0007479148
547.52,780.29,14198.0,7.0435e-05,22.604,28.1,82.468,41.404,63.741,590.07,0.011988,57.902,0.079263,supercritical,CO2,C124389,carbon-dioxide,304.18,73.8,10.6,0.09433962264150944,1.8,10.573035230352303,0.0007466109999999999
547.52,782.75,14222.0,7.0312e-05,22.594,28.098,82.433,41.409,63.739,591.07,0.011731,58.025,0.079384,supercritical,CO2,C124389,carbon-dioxide,304.18,73.8,10.6,0.09433962264150944,1.8,10.606368563685637,0.0007453071999999999
547.52,785.21,14247.0,7.0191e-05,22.585,28.096,82.398,41.413,63.736,592.07,0.011476,58.147,0.079504,supercritical,CO2,C124389,carbon-dioxide,304.18,73.8,10.6,0.09433962264150944,1.8,10.639701897018972,0.0007440246
547.52,787.67,14271.0,7.0071e-05,22.575,28.095,82.363,41.418,63.734,593.07,0.011223,58.269,0.079624,supercritical,CO2,C124389,carbon-dioxide,304.18,73.8,10.6,0.09433962264150944,1.8,10.673035230352303,0.0007427525999999999
547.52,790.12,14296.0,6.9951e-05,22.566,28.093,82.329,41.423,63.731,594.07,0.010971,58.392,0.079743,supercritical,CO2,C124389,carbon-dioxide,304.18,73.8,10.6,0.09433962264150944,1.8,10.706233062330623,0.0007414805999999999
547.52,792.58,14320.0,6.9833e-05,22.556,28.091,82.294,41.428,63.728,595.07,0.010721,58.514,0.079863,supercritical,CO2,C124389,carbon-dioxide,304.18,73.8,10.6,0.09433962264150944,1.8,10.739566395663958,0.0007402297999999999
547.52,795.04,14344.0,6.9715e-05,22.547,28.089,82.26,41.432,63.725,596.07,0.010473,58.635,0.079982,supercritical,CO2,C124389,carbon-dioxide,304.18,73.8,10.6,0.09433962264150944,1.8,10.77289972899729,0.000738979
547.52,797.5,14368.0,6.9597e-05,22.537,28.088,82.226,41.437,63.723,597.06,0.010226,58.757,0.080101,supercritical,CO2,C124389,carbon-dioxide,304.18,73.8,10.6,0.09433962264150944,1.8,10.806233062330623,0.0007377282
547.52,799.96,14392.0,6.9481e-05,22.528,28.086,82.192,41.442,63.72,598.06,0.0099814,58.879,0.08022,supercritical,CO2,C124389,carbon-dioxide,304.18,73.8,10.6,0.09433962264150944,1.8,10.839566395663958,0.0007364985999999999
547.52,802.42,14416.0,6.9366e-05,22.519,28.085,82.158,41.446,63.717,599.05,0.0097382,59.001,0.080338,supercritical,CO2,C124389,carbon-dioxide,304.18,73.8,10.6,0.09433962264150944,1.8,10.87289972899729,0.0007352795999999999
547.52,804.87,14440.0,6.9251e-05,22.509,28.083,82.124,41.451,63.714,600.05,0.0094966,59.122,0.080457,supercritical,CO2,C124389,carbon-dioxide,304.18,73.8,10.6,0.09433962264150944,1.8,10.90609756097561,0.0007340606
547.52,807.33,14464.0,6.9137e-05,22.5,28.082,82.09,41.456,63.711,601.04,0.0092567,59.244,0.080575,supercritical,CO2,C124389,carbon-dioxide,304.18,73.8,10.6,0.09433962264150944,1.8,10.939430894308945,0.0007328521999999999
547.52,809.79,14488.0,6.9024e-05,22.491,28.08,82.056,41.46,63.708,602.03,0.0090183,59.365,0.080693,supercritical,CO2,C124389,carbon-dioxide,304.18,73.8,10.6,0.09433962264150944,1.8,10.972764227642276,0.0007316543999999999
547.52,812.25,14511.0,6.8911e-05,22.482,28.079,82.023,41.465,63.704,603.02,0.0087816,59.486,0.080811,supercritical,CO2,C124389,carbon-dioxide,304.18,73.8,10.6,0.09433962264150944,1.8,11.00609756097561,0.0007304566
547.52,814.71,14535.0,6.88e-05,22.472,28.078,81.989,41.47,63.701,604.01,0.0085465,59.607,0.080929,supercritical,CO2,C124389,carbon-dioxide,304.18,73.8,10.6,0.09433962264150944,1.8,11.039430894308945,0.00072928
547.52,817.17,14558.0,6.8689e-05,22.463,28.076,81.956,41.474,63.698,605.0,0.0083129,59.729,0.081046,supercritical,CO2,C124389,carbon-dioxide,304.18,73.8,10.6,0.09433962264150944,1.8,11.072764227642276,0.0007281034
547.52,819.62,14582.0,6.8578e-05,22.454,28.075,81.923,41.479,63.695,605.99,0.0080809,59.849,0.081163,supercritical,CO2,C124389,carbon-dioxide,304.18,73.8,10.6,0.09433962264150944,1.8,11.105962059620596,0.0007269268
547.52,822.08,14605.0,6.8469e-05,22.445,28.074,81.89,41.484,63.691,606.98,0.0078504,59.97,0.08128,supercritical,CO2,C124389,carbon-dioxide,304.18,73.8,10.6,0.09433962264150944,1.8,11.139295392953931,0.0007257714
547.52,824.54,14628.0,6.836e-05,22.436,28.072,81.857,41.488,63.688,607.96,0.0076215,60.091,0.081397,supercritical,CO2,C124389,carbon-dioxide,304.18,73.8,10.6,0.09433962264150944,1.8,11.172628726287263,0.000724616
547.52,827.0,14652.0,6.8252e-05,22.427,28.071,81.824,41.493,63.685,608.95,0.0073941,60.212,0.081514,supercritical,CO2,C124389,carbon-dioxide,304.18,73.8,10.6,0.09433962264150944,1.8,11.205962059620596,0.0007234711999999999
547.52,829.46,14675.0,6.8145e-05,22.418,28.07,81.792,41.498,63.681,609.93,0.0071682,60.332,0.081631,supercritical,CO2,C124389,carbon-dioxide,304.18,73.8,10.6,0.09433962264150944,1.8,11.239295392953931,0.000722337
547.52,831.92,14698.0,6.8038e-05,22.409,28.069,81.759,41.502,63.678,610.91,0.0069437,60.453,0.081747,supercritical,CO2,C124389,carbon-dioxide,304.18,73.8,10.6,0.09433962264150944,1.8,11.272628726287262,0.0007212027999999999
547.52,834.37,14721.0,6.7932e-05,22.4,28.068,81.726,41.507,63.674,611.89,0.0067208,60.573,0.081863,supercritical,CO2,C124389,carbon-dioxide,304.18,73.8,10.6,0.09433962264150944,1.8,11.305826558265583,0.0007200792
547.52,836.83,14743.0,6.7827e-05,22.391,28.067,81.694,41.511,63.671,612.88,0.0064993,60.693,0.081979,supercritical,CO2,C124389,carbon-dioxide,304.18,73.8,10.6,0.09433962264150944,1.8,11.339159891598918,0.0007189662
547.52,839.29,14766.0,6.7722e-05,22.382,28.066,81.662,41.516,63.667,613.86,0.0062792,60.814,0.082095,supercritical,CO2,C124389,carbon-dioxide,304.18,73.8,10.6,0.09433962264150944,1.8,11.37249322493225,0.0007178531999999999
547.52,841.75,14789.0,6.7618e-05,22.373,28.065,81.63,41.521,63.664,614.83,0.0060606,60.934,0.082211,supercritical,CO2,C124389,carbon-dioxide,304.18,73.8,10.6,0.09433962264150944,1.8,11.405826558265582,0.0007167508
547.52,844.21,14812.0,6.7515e-05,22.364,28.064,81.598,41.525,63.66,615.81,0.0058434,61.054,0.082327,supercritical,CO2,C124389,carbon-dioxide,304.18,73.8,10.6,0.09433962264150944,1.8,11.439159891598917,0.000715659
547.52,846.67,14834.0,6.7412e-05,22.356,28.063,81.566,41.53,63.656,616.79,0.0056276,61.174,0.082442,supercritical,CO2,C124389,carbon-dioxide,304.18,73.8,10.6,0.09433962264150944,1.8,11.472493224932249,0.0007145671999999999
547.52,849.12,14857.0,6.731e-05,22.347,28.062,81.534,41.535,63.653,617.77,0.0054133,61.293,0.082557,supercritical,CO2,C124389,carbon-dioxide,304.18,73.8,10.6,0.09433962264150944,1.8,11.50569105691057,0.000713486
547.52,851.58,14879.0,6.7209e-05,22.338,28.061,81.502,41.539,63.649,618.74,0.0052003,61.413,0.082672,supercritical,CO2,C124389,carbon-dioxide,304.18,73.8,10.6,0.09433962264150944,1.8,11.539024390243904,0.0007124153999999999
547.52,854.04,14901.0,6.7109e-05,22.329,28.061,81.471,41.544,63.645,619.71,0.0049886,61.533,0.082787,supercritical,CO2,C124389,carbon-dioxide,304.18,73.8,10.6,0.09433962264150944,1.8,11.572357723577236,0.0007113553999999999
547.52,856.5,14923.0,6.7008e-05,22.321,28.06,81.439,41.548,63.641,620.69,0.0047783,61.652,0.082902,supercritical,CO2,C124389,carbon-dioxide,304.18,73.8,10.6,0.09433962264150944,1.8,11.605691056910569,0.0007102848
547.52,858.96,14946.0,6.6909e-05,22.312,28.059,81.408,41.553,63.638,621.66,0.0045694,61.772,0.083016,supercritical,CO2,C124389,carbon-dioxide,304.18,73.8,10.6,0.09433962264150944,1.8,11.639024390243904,0.0007092354
547.52,861.42,14968.0,6.681e-05,22.303,28.058,81.376,41.557,63.634,622.63,0.0043618,61.891,0.08313,supercritical,CO2,C124389,carbon-dioxide,304.18,73.8,10.6,0.09433962264150944,1.8,11.672357723577235,0.000708186
547.52,863.87,14990.0,6.6712e-05,22.295,28.058,81.345,41.562,63.63,623.6,0.0041555,62.01,0.083245,supercritical,CO2,C124389,carbon-dioxide,304.18,73.8,10.6,0.09433962264150944,1.8,11.705555555555556,0.0007071471999999998
547.52,866.33,15012.0,6.6615e-05,22.286,28.057,81.314,41.567,63.626,624.57,0.0039506,62.129,0.083359,supercritical,CO2,C124389,carbon-dioxide,304.18,73.8,10.6,0.09433962264150944,1.8,11.73888888888889,0.000706119
547.52,868.79,15034.0,6.6518e-05,22.278,28.057,81.283,41.571,63.622,625.54,0.0037469,62.248,0.083473,supercritical,CO2,C124389,carbon-dioxide,304.18,73.8,10.6,0.09433962264150944,1.8,11.772222222222222,0.0007050908
547.52,871.25,15055.0,6.6421e-05,22.269,28.056,81.252,41.576,63.618,626.51,0.0035445,62.367,0.083586,supercritical,CO2,C124389,carbon-dioxide,304.18,73.8,10.6,0.09433962264150944,1.8,11.805555555555555,0.0007040626
547.52,873.71,15077.0,6.6325e-05,22.261,28.055,81.221,41.58,63.614,627.47,0.0033434,62.486,0.0837,supercritical,CO2,C124389,carbon-dioxide,304.18,73.8,10.6,0.09433962264150944,1.8,11.83888888888889,0.0007030449999999999
547.52,876.17,15099.0,6.623e-05,22.252,28.055,81.191,41.585,63.61,628.44,0.0031436,62.605,0.083813,supercritical,CO2,C124389,carbon-dioxide,304.18,73.8,10.6,0.09433962264150944,1.8,11.872222222222222,0.0007020379999999999
547.52,878.62,15120.0,6.6136e-05,22.244,28.055,81.16,41.589,63.606,629.4,0.002945,62.723,0.083926,supercritical,CO2,C124389,carbon-dioxide,304.18,73.8,10.6,0.09433962264150944,1.8,11.905420054200542,0.0007010416
547.52,881.08,15142.0,6.6042e-05,22.235,28.054,81.13,41.594,63.602,630.36,0.0027477,62.842,0.084039,supercritical,CO2,C124389,carbon-dioxide,304.18,73.8,10.6,0.09433962264150944,1.8,11.938753387533877,0.0007000452
547.52,883.54,15163.0,6.5948e-05,22.227,28.054,81.099,41.599,63.598,631.33,0.0025516,62.96,0.084152,supercritical,CO2,C124389,carbon-dioxide,304.18,73.8,10.6,0.09433962264150944,1.8,11.972086720867209,0.0006990487999999999
547.52,886.0,15185.0,6.5855e-05,22.218,28.053,81.069,41.603,63.593,632.29,0.0023567,63.078,0.084265,supercritical,CO2,C124389,carbon-dioxide,304.18,73.8,10.6,0.09433962264150944,1.8,12.005420054200542,0.000698063
547.52,888.46,15206.0,6.5763e-05,22.21,28.053,81.039,41.608,63.589,633.25,0.002163,63.197,0.084378,supercritical,CO2,C124389,carbon-dioxide,304.18,73.8,10.6,0.09433962264150944,1.8,12.038753387533877,0.0006970877999999999
547.52,890.92,15227.0,6.5671e-05,22.202,28.053,81.009,41.612,63.585,634.21,0.0019706,63.315,0.08449,supercritical,CO2,C124389,carbon-dioxide,304.18,73.8,10.6,0.09433962264150944,1.8,12.072086720867208,0.0006961126
547.52,893.37,15249.0,6.558e-05,22.194,28.052,80.979,41.617,63.581,635.17,0.0017793,63.433,0.084602,supercritical,CO2,C124389,carbon-dioxide,304.18,73.8,10.6,0.09433962264150944,1.8,12.105284552845529,0.000695148
547.52,895.83,15270.0,6.5489e-05,22.185,28.052,80.949,41.621,63.577,636.12,0.0015892,63.551,0.084714,supercritical,CO2,C124389,carbon-dioxide,304.18,73.8,10.6,0.09433962264150944,1.8,12.138617886178864,0.0006941833999999999