Temperature (K),Pressure (bar),Density (mol/m3),Volume (m3/mol),Internal Energy (kJ/mol),Enthalpy (kJ/mol),Entropy (J/mol*K),Cv (J/mol*K),Cp (J/mol*K),Sound Spd. (m/s),Joule-Thomson (K/bar),Viscosity (uPa*s),Therm. Cond. (W/m*K),Phase,substance,substance_id,substance_name,Tc,Pc,rhoc,Vmc,Tr,Pr,Vmr
271.55,424.8,17591.0,5.6846e-05,0.90244,3.3173,95.486,14.686,35.252,494.68,0.027578,47.226,0.045671,supercritical,Ar,C7440371,argon,150.86,48.9805,13.41,0.07457121551081282,1.8000000000000003,8.672839191106664,0.00076230486
271.55,426.43,17631.0,5.6717e-05,0.8971,3.3157,95.446,14.69,35.238,495.65,0.027017,47.342,0.045779,supercritical,Ar,C7440371,argon,150.86,48.9805,13.41,0.07457121551081282,1.8000000000000003,8.706117740733557,0.0007605749700000001
271.55,428.06,17671.0,5.659e-05,0.89178,3.3142,95.406,14.694,35.225,496.61,0.02646,47.457,0.045887,supercritical,Ar,C7440371,argon,150.86,48.9805,13.41,0.07457121551081282,1.8000000000000003,8.73939629036045,0.0007588719
271.55,429.69,17711.0,5.6463e-05,0.88649,3.3127,95.367,14.698,35.211,497.58,0.025908,47.573,0.045994,supercritical,Ar,C7440371,argon,150.86,48.9805,13.41,0.07457121551081282,1.8000000000000003,8.772674839987342,0.0007571688300000001
271.55,431.32,17750.0,5.6338e-05,0.88122,3.3112,95.328,14.702,35.197,498.54,0.025361,47.688,0.046101,supercritical,Ar,C7440371,argon,150.86,48.9805,13.41,0.07457121551081282,1.8000000000000003,8.805953389614235,0.0007554925800000001
271.55,432.95,17789.0,5.6214e-05,0.87597,3.3097,95.288,14.706,35.184,499.5,0.024818,47.803,0.046208,supercritical,Ar,C7440371,argon,150.86,48.9805,13.41,0.07457121551081282,1.8000000000000003,8.839231939241126,0.0007538297400000001
271.55,434.58,17828.0,5.6091e-05,0.87075,3.3083,95.25,14.71,35.17,500.46,0.02428,47.918,0.046315,supercritical,Ar,C7440371,argon,150.86,48.9805,13.41,0.07457121551081282,1.8000000000000003,8.872510488868018,0.0007521803100000001
271.55,436.21,17867.0,5.5969e-05,0.86555,3.307,95.211,14.714,35.156,501.41,0.023746,48.033,0.046421,supercritical,Ar,C7440371,argon,150.86,48.9805,13.41,0.07457121551081282,1.8000000000000003,8.90578903849491,0.00075054429
271.55,437.84,17906.0,5.5848e-05,0.86038,3.3056,95.172,14.718,35.142,502.37,0.023216,48.147,0.046527,supercritical,Ar,C7440371,argon,150.86,48.9805,13.41,0.07457121551081282,1.8000000000000003,8.939067588121803,0.00074892168
271.55,439.47,17944.0,5.5728e-05,0.85523,3.3043,95.134,14.722,35.128,503.32,0.022691,48.262,0.046633,supercritical,Ar,C7440371,argon,150.86,48.9805,13.41,0.07457121551081282,1.8000000000000003,8.972346137748696,0.00074731248
271.55,441.1,17983.0,5.5609e-05,0.8501,3.303,95.096,14.726,35.115,504.28,0.02217,48.376,0.046739,supercritical,Ar,C7440371,argon,150.86,48.9805,13.41,0.07457121551081282,1.8000000000000003,9.005624687375589,0.0007457166900000001
271.55,442.73,18021.0,5.5491e-05,0.845,3.3018,95.058,14.73,35.101,505.23,0.021653,48.491,0.046845,supercritical,Ar,C7440371,argon,150.86,48.9805,13.41,0.07457121551081282,1.8000000000000003,9.038903237002481,0.0007441343100000001
271.55,444.36,18059.0,5.5374e-05,0.83992,3.3005,95.02,14.734,35.087,506.18,0.021141,48.605,0.04695,supercritical,Ar,C7440371,argon,150.86,48.9805,13.41,0.07457121551081282,1.8000000000000003,9.072181786629374,0.0007425653400000001
271.55,445.99,18097.0,5.5259e-05,0.83487,3.2993,94.983,14.738,35.073,507.13,0.020632,48.719,0.047055,supercritical,Ar,C7440371,argon,150.86,48.9805,13.41,0.07457121551081282,1.8000000000000003,9.105460336256266,0.00074102319
271.55,447.62,18134.0,5.5144e-05,0.82983,3.2982,94.945,14.742,35.059,508.08,0.020128,48.833,0.04716,supercritical,Ar,C7440371,argon,150.86,48.9805,13.41,0.07457121551081282,1.8000000000000003,9.138738885883157,0.0007394810400000001
271.55,449.25,18172.0,5.503e-05,0.82482,3.297,94.908,14.746,35.045,509.02,0.019628,48.947,0.047265,supercritical,Ar,C7440371,argon,150.86,48.9805,13.41,0.07457121551081282,1.8000000000000003,9.17201743551005,0.0007379523
271.55,450.88,18209.0,5.4917e-05,0.81983,3.2959,94.871,14.75,35.031,509.97,0.019132,49.061,0.04737,supercritical,Ar,C7440371,argon,150.86,48.9805,13.41,0.07457121551081282,1.8000000000000003,9.205295985136942,0.0007364369700000001
271.55,452.51,18246.0,5.4805e-05,0.81487,3.2949,94.834,14.754,35.017,510.91,0.018639,49.175,0.047474,supercritical,Ar,C7440371,argon,150.86,48.9805,13.41,0.07457121551081282,1.8000000000000003,9.238574534763835,0.00073493505
271.55,454.14,18283.0,5.4694e-05,0.80992,3.2938,94.797,14.758,35.003,511.85,0.018151,49.288,0.047578,supercritical,Ar,C7440371,argon,150.86,48.9805,13.41,0.07457121551081282,1.8000000000000003,9.271853084390727,0.0007334465400000001
271.55,455.77,18320.0,5.4584e-05,0.805,3.2928,94.761,14.762,34.989,512.79,0.017667,49.402,0.047682,supercritical,Ar,C7440371,argon,150.86,48.9805,13.41,0.07457121551081282,1.8000000000000003,9.305131634017618,0.0007319714400000001
271.55,457.4,18357.0,5.4475e-05,0.8001,3.2918,94.724,14.766,34.974,513.73,0.017186,49.515,0.047786,supercritical,Ar,C7440371,argon,150.86,48.9805,13.41,0.07457121551081282,1.8000000000000003,9.33841018364451,0.0007305097500000001
271.55,459.03,18394.0,5.4367e-05,0.79522,3.2908,94.688,14.77,34.96,514.67,0.016709,49.628,0.04789,supercritical,Ar,C7440371,argon,150.86,48.9805,13.41,0.07457121551081282,1.8000000000000003,9.371688733271403,0.0007290614700000001
271.55,460.66,18430.0,5.426e-05,0.79037,3.2899,94.652,14.774,34.946,515.61,0.016237,49.742,0.047993,supercritical,Ar,C7440371,argon,150.86,48.9805,13.41,0.07457121551081282,1.8000000000000003,9.404967282898298,0.0007276266000000001
271.55,462.29,18466.0,5.4153e-05,0.78553,3.289,94.616,14.778,34.932,516.54,0.015767,49.855,0.048096,supercritical,Ar,C7440371,argon,150.86,48.9805,13.41,0.07457121551081282,1.8000000000000003,9.438245832525189,0.0007261917300000001
271.55,463.92,18502.0,5.4048e-05,0.78072,3.2881,94.58,14.782,34.918,517.47,0.015302,49.968,0.048199,supercritical,Ar,C7440371,argon,150.86,48.9805,13.41,0.07457121551081282,1.8000000000000003,9.471524382152081,0.0007247836800000001
271.55,465.55,18538.0,5.3943e-05,0.77593,3.2872,94.545,14.786,34.904,518.41,0.01484,50.081,0.048302,supercritical,Ar,C7440371,argon,150.86,48.9805,13.41,0.07457121551081282,1.8000000000000003,9.504802931778974,0.0007233756300000001
271.55,467.18,18574.0,5.3839e-05,0.77116,3.2864,94.509,14.79,34.89,519.34,0.014382,50.194,0.048404,supercritical,Ar,C7440371,argon,150.86,48.9805,13.41,0.07457121551081282,1.8000000000000003,9.538081481405866,0.00072198099
271.55,468.81,18610.0,5.3736e-05,0.76641,3.2856,94.474,14.793,34.876,520.27,0.013928,50.307,0.048507,supercritical,Ar,C7440371,argon,150.86,48.9805,13.41,0.07457121551081282,1.8000000000000003,9.571360031032759,0.00072059976
271.55,470.44,18645.0,5.3634e-05,0.76168,3.2848,94.439,14.797,34.862,521.19,0.013477,50.419,0.048609,supercritical,Ar,C7440371,argon,150.86,48.9805,13.41,0.07457121551081282,1.8000000000000003,9.60463858065965,0.0007192319400000001
271.55,472.07,18680.0,5.3532e-05,0.75697,3.2841,94.404,14.801,34.847,522.12,0.013029,50.532,0.048711,supercritical,Ar,C7440371,argon,150.86,48.9805,13.41,0.07457121551081282,1.8000000000000003,9.637917130286542,0.0007178641200000001
271.55,473.7,18715.0,5.3432e-05,0.75228,3.2833,94.369,14.805,34.833,523.04,0.012585,50.644,0.048813,supercritical,Ar,C7440371,argon,150.86,48.9805,13.41,0.07457121551081282,1.8000000000000003,9.671195679913435,0.0007165231200000001
271.55,475.33,18750.0,5.3332e-05,0.74761,3.2826,94.335,14.809,34.819,523.97,0.012145,50.757,0.048914,supercritical,Ar,C7440371,argon,150.86,48.9805,13.41,0.07457121551081282,1.8000000000000003,9.704474229540327,0.00071518212
271.55,476.96,18785.0,5.3233e-05,0.74296,3.282,94.3,14.813,34.805,524.89,0.011708,50.869,0.049016,supercritical,Ar,C7440371,argon,150.86,48.9805,13.41,0.07457121551081282,1.8000000000000003,9.73775277916722,0.00071385453
271.55,478.59,18820.0,5.3135e-05,0.73834,3.2813,94.266,14.817,34.791,525.81,0.011274,50.982,0.049117,supercritical,Ar,C7440371,argon,150.86,48.9805,13.41,0.07457121551081282,1.8000000000000003,9.77103132879411,0.00071254035
271.55,480.22,18855.0,5.3037e-05,0.73373,3.2807,94.232,14.821,34.777,526.73,0.010844,51.094,0.049218,supercritical,Ar,C7440371,argon,150.86,48.9805,13.41,0.07457121551081282,1.8000000000000003,9.804309878421005,0.0007112261700000001
271.55,481.85,18889.0,5.2941e-05,0.72914,3.2801,94.198,14.825,34.763,527.64,0.010417,51.206,0.049319,supercritical,Ar,C7440371,argon,150.86,48.9805,13.41,0.07457121551081282,1.8000000000000003,9.837588428047898,0.00070993881
271.55,483.48,18923.0,5.2845e-05,0.72457,3.2795,94.164,14.829,34.749,528.56,0.0099934,51.318,0.04942,supercritical,Ar,C7440371,argon,150.86,48.9805,13.41,0.07457121551081282,1.8000000000000003,9.870866977674789,0.0007086514500000001
271.55,485.11,18958.0,5.2749e-05,0.72002,3.279,94.13,14.833,34.735,529.47,0.009573,51.43,0.04952,supercritical,Ar,C7440371,argon,150.86,48.9805,13.41,0.07457121551081282,1.8000000000000003,9.904145527301681,0.0007073640900000001
271.55,486.74,18992.0,5.2655e-05,0.71549,3.2784,94.096,14.837,34.721,530.39,0.0091558,51.542,0.04962,supercritical,Ar,C7440371,argon,150.86,48.9805,13.41,0.07457121551081282,1.8000000000000003,9.937424076928574,0.0007061035500000001
271.55,488.37,19025.0,5.2561e-05,0.71098,3.2779,94.063,14.841,34.707,531.3,0.0087419,51.654,0.049721,supercritical,Ar,C7440371,argon,150.86,48.9805,13.41,0.07457121551081282,1.8000000000000003,9.970702626555466,0.0007048430100000001
271.55,490.0,19059.0,5.2468e-05,0.70649,3.2774,94.03,14.845,34.693,532.21,0.0083311,51.766,0.049821,supercritical,Ar,C7440371,argon,150.86,48.9805,13.41,0.07457121551081282,1.8000000000000003,10.003981176182359,0.0007035958800000001
271.55,491.63,19093.0,5.2376e-05,0.70202,3.277,93.997,14.848,34.679,533.12,0.0079234,51.877,0.04992,supercritical,Ar,C7440371,argon,150.86,48.9805,13.41,0.07457121551081282,1.8000000000000003,10.037259725809252,0.0007023621600000001
271.55,493.26,19126.0,5.2284e-05,0.69756,3.2765,93.964,14.852,34.665,534.02,0.0075188,51.989,0.05002,supercritical,Ar,C7440371,argon,150.86,48.9805,13.41,0.07457121551081282,1.8000000000000003,10.070538275436142,0.0007011284400000001
271.55,494.89,19160.0,5.2193e-05,0.69313,3.2761,93.931,14.856,34.651,534.93,0.0071173,52.1,0.05012,supercritical,Ar,C7440371,argon,150.86,48.9805,13.41,0.07457121551081282,1.8000000000000003,10.103816825063035,0.0006999081300000001
271.55,496.52,19193.0,5.2103e-05,0.68871,3.2757,93.898,14.86,34.637,535.83,0.0067189,52.212,0.050219,supercritical,Ar,C7440371,argon,150.86,48.9805,13.41,0.07457121551081282,1.8000000000000003,10.137095374689927,0.0006987012300000001
271.55,498.15,19226.0,5.2013e-05,0.68431,3.2754,93.865,14.864,34.623,536.74,0.0063234,52.323,0.050318,supercritical,Ar,C7440371,argon,150.86,48.9805,13.41,0.07457121551081282,1.8000000000000003,10.17037392431682,0.0006974943300000001
271.55,499.78,19259.0,5.1925e-05,0.67993,3.275,93.833,14.868,34.609,537.64,0.005931,52.435,0.050417,supercritical,Ar,C7440371,argon,150.86,48.9805,13.41,0.07457121551081282,1.8000000000000003,10.203652473943713,0.00069631425
271.55,501.41,19292.0,5.1836e-05,0.67557,3.2747,93.8,14.872,34.595,538.54,0.0055415,52.546,0.050516,supercritical,Ar,C7440371,argon,150.86,48.9805,13.41,0.07457121551081282,1.8000000000000003,10.236931023570605,0.0006951207600000001
271.55,503.04,19324.0,5.1749e-05,0.67123,3.2744,93.768,14.876,34.581,539.43,0.0051549,52.657,0.050614,supercritical,Ar,C7440371,argon,150.86,48.9805,13.41,0.07457121551081282,1.8000000000000003,10.270209573197498,0.0006939540900000001
271.55,504.67,19357.0,5.1662e-05,0.6669,3.2741,93.736,14.88,34.567,540.33,0.0047712,52.768,0.050713,supercritical,Ar,C7440371,argon,150.86,48.9805,13.41,0.07457121551081282,1.8000000000000003,10.30348812282439,0.0006927874200000001
271.55,506.3,19389.0,5.1575e-05,0.6626,3.2739,93.704,14.884,34.553,541.23,0.0043904,52.879,0.050811,supercritical,Ar,C7440371,argon,150.86,48.9805,13.41,0.07457121551081282,1.8000000000000003,10.336766672451281,0.00069162075
271.55,507.93,19421.0,5.149e-05,0.65831,3.2736,93.672,14.887,34.54,542.12,0.0040124,52.99,0.050909,supercritical,Ar,C7440371,argon,150.86,48.9805,13.41,0.07457121551081282,1.8000000000000003,10.370045222078174,0.0006904809000000001
271.55,509.56,19454.0,5.1405e-05,0.65403,3.2734,93.641,14.891,34.526,543.01,0.0036373,53.101,0.051007,supercritical,Ar,C7440371,argon,150.86,48.9805,13.41,0.07457121551081282,1.8000000000000003,10.403323771705066,0.00068934105
271.55,511.19,19486.0,5.132e-05,0.64978,3.2732,93.609,14.895,34.512,543.9,0.0032649,53.212,0.051105,supercritical,Ar,C7440371,argon,150.86,48.9805,13.41,0.07457121551081282,1.8000000000000003,10.436602321331959,0.0006882012000000001
271.55,512.82,19517.0,5.1236e-05,0.64554,3.273,93.578,14.899,34.498,544.79,0.0028953,53.323,0.051203,supercritical,Ar,C7440371,argon,150.86,48.9805,13.41,0.07457121551081282,1.8000000000000003,10.469880870958852,0.0006870747600000001
271.55,514.45,19549.0,5.1153e-05,0.64132,3.2729,93.547,14.903,34.485,545.68,0.0025284,53.434,0.0513,supercritical,Ar,C7440371,argon,150.86,48.9805,13.41,0.07457121551081282,1.8000000000000003,10.503159420585744,0.0006859617300000001
271.55,516.08,19581.0,5.107e-05,0.63712,3.2728,93.515,14.907,34.471,546.57,0.0021642,53.545,0.051398,supercritical,Ar,C7440371,argon,150.86,48.9805,13.41,0.07457121551081282,1.8000000000000003,10.536437970212637,0.0006848487000000001
271.55,517.71,19612.0,5.0988e-05,0.63293,3.2726,93.484,14.911,34.457,547.45,0.0018027,53.655,0.051495,supercritical,Ar,C7440371,argon,150.86,48.9805,13.41,0.07457121551081282,1.8000000000000003,10.56971651983953,0.0006837490800000001
271.55,519.34,19644.0,5.0907e-05,0.62876,3.2725,93.453,14.915,34.444,548.33,0.0014438,53.766,0.051592,supercritical,Ar,C7440371,argon,150.86,48.9805,13.41,0.07457121551081282,1.8000000000000003,10.602995069466422,0.0006826628700000001
271.55,520.97,19675.0,5.0826e-05,0.62461,3.2725,93.423,14.919,34.43,549.22,0.0010876,53.876,0.051689,supercritical,Ar,C7440371,argon,150.86,48.9805,13.41,0.07457121551081282,1.8000000000000003,10.636273619093313,0.00068157666
271.55,522.6,19706.0,5.0745e-05,0.62047,3.2724,93.392,14.922,34.417,550.1,0.00073396,53.987,0.051786,supercritical,Ar,C7440371,argon,150.86,48.9805,13.41,0.07457121551081282,1.8000000000000003,10.669552168720205,0.0006804904500000001
271.55,524.23,19737.0,5.0666e-05,0.61635,3.2724,93.361,14.926,34.403,550.98,0.00038291,54.097,0.051882,supercritical,Ar,C7440371,argon,150.86,48.9805,13.41,0.07457121551081282,1.8000000000000003,10.702830718347098,0.0006794310600000001
271.55,525.86,19768.0,5.0586e-05,0.61225,3.2724,93.331,14.93,34.39,551.85,3.4418e-05,54.208,0.051979,supercritical,Ar,C7440371,argon,150.86,48.9805,13.41,0.07457121551081282,1.8000000000000003,10.73610926797399,0.00067835826
271.55,527.49,19799.0,5.0508e-05,0.60816,3.2724,93.301,14.934,34.376,552.73,-0.00031155,54.318,0.052075,supercritical,Ar,C7440371,argon,150.86,48.9805,13.41,0.07457121551081282,1.8000000000000003,10.769387817600883,0.0006773122800000001
271.55,529.12,19830.0,5.0429e-05,0.60409,3.2724,93.27,14.938,34.363,553.6,-0.00065502,54.428,0.052171,supercritical,Ar,C7440371,argon,150.86,48.9805,13.41,0.07457121551081282,1.8000000000000003,10.802666367227774,0.00067625289
271.55,530.75,19860.0,5.0352e-05,0.60004,3.2725,93.24,14.942,34.349,554.48,-0.000996,54.538,0.052267,supercritical,Ar,C7440371,argon,150.86,48.9805,13.41,0.07457121551081282,1.8000000000000003,10.835944916854666,0.00067522032
271.55,532.38,19891.0,5.0275e-05,0.596,3.2725,93.21,14.946,34.336,555.35,-0.0013345,54.648,0.052363,supercritical,Ar,C7440371,argon,150.86,48.9805,13.41,0.07457121551081282,1.8000000000000003,10.869223466481559,0.0006741877500000001
271.55,534.01,19921.0,5.0198e-05,0.59198,3.2726,93.181,14.949,34.323,556.22,-0.0016706,54.759,0.052459,supercritical,Ar,C7440371,argon,150.86,48.9805,13.41,0.07457121551081282,1.8000000000000003,10.902502016108452,0.0006731551800000001
271.55,535.64,19951.0,5.0122e-05,0.58797,3.2727,93.151,14.953,34.309,557.09,-0.0020043,54.869,0.052554,supercritical,Ar,C7440371,argon,150.86,48.9805,13.41,0.07457121551081282,1.8000000000000003,10.935780565735344,0.0006721360200000001
271.55,537.27,19981.0,5.0047e-05,0.58398,3.2728,93.121,14.957,34.296,557.96,-0.0023356,54.978,0.05265,supercritical,Ar,C7440371,argon,150.86,48.9805,13.41,0.07457121551081282,1.8000000000000003,10.969059115362235,0.00067113027
271.55,538.9,20011.0,4.9972e-05,0.58001,3.273,93.092,14.961,34.283,558.82,-0.0026646,55.088,0.052745,supercritical,Ar,C7440371,argon,150.86,48.9805,13.41,0.07457121551081282,1.8000000000000003,11.002337664989128,0.0006701245200000001
271.55,540.53,20041.0,4.9897e-05,0.57605,3.2731,93.062,14.965,34.27,559.69,-0.0029912,55.198,0.05284,supercritical,Ar,C7440371,argon,150.86,48.9805,13.41,0.07457121551081282,1.8000000000000003,11.03561621461602,0.0006691187700000001
271.55,542.16,20071.0,4.9823e-05,0.5721,3.2733,93.033,14.969,34.257,560.55,-0.0033154,55.308,0.052935,supercritical,Ar,C7440371,argon,150.86,48.9805,13.41,0.07457121551081282,1.8000000000000003,11.068894764242913,0.00066812643
271.55,543.79,20101.0,4.975e-05,0.56818,3.2735,93.004,14.972,34.243,561.41,-0.0036374,55.418,0.05303,supercritical,Ar,C7440371,argon,150.86,48.9805,13.41,0.07457121551081282,1.8000000000000003,11.102173313869805,0.0006671475000000002
271.55,545.42,20130.0,4.9677e-05,0.56426,3.2737,92.975,14.976,34.23,562.27,-0.0039571,55.527,0.053163,supercritical,Ar,C7440371,argon,150.86,48.9805,13.41,0.07457121551081282,1.8000000000000003,11.135451863496696,0.0006661685700000001
271.55,547.05,20160.0,4.9604e-05,0.56036,3.2739,92.946,14.98,34.217,563.13,-0.0042746,55.637,0.053258,supercritical,Ar,C7440371,argon,150.86,48.9805,13.41,0.07457121551081282,1.8000000000000003,11.168730413123589,0.0006651896400000001
271.55,548.68,20189.0,4.9532e-05,0.55648,3.2742,92.917,14.984,34.204,563.99,-0.0045898,55.746,0.053354,supercritical,Ar,C7440371,argon,150.86,48.9805,13.41,0.07457121551081282,1.8000000000000003,11.202008962750481,0.0006642241200000001
271.55,550.31,20218.0,4.946e-05,0.55261,3.2745,92.888,14.988,34.191,564.84,-0.0049028,55.856,0.053449,supercritical,Ar,C7440371,argon,150.86,48.9805,13.41,0.07457121551081282,1.8000000000000003,11.235287512377374,0.0006632586
271.55,551.94,20247.0,4.9389e-05,0.54876,3.2747,92.86,14.992,34.178,565.7,-0.0052136,55.965,0.053544,supercritical,Ar,C7440371,argon,150.86,48.9805,13.41,0.07457121551081282,1.8000000000000003,11.268566062004268,0.0006623064900000001
271.55,553.57,20276.0,4.9318e-05,0.54492,3.275,92.831,14.995,34.165,566.55,-0.0055222,56.075,0.053639,supercritical,Ar,C7440371,argon,150.86,48.9805,13.41,0.07457121551081282,1.8000000000000003,11.30184461163116,0.0006613543800000001
271.55,555.2,20305.0,4.9248e-05,0.54109,3.2754,92.803,14.999,34.152,567.4,-0.0058287,56.184,0.053733,supercritical,Ar,C7440371,argon,150.86,48.9805,13.41,0.07457121551081282,1.8000000000000003,11.335123161258053,0.00066041568
271.55,556.83,20334.0,4.9178e-05,0.53728,3.2757,92.774,15.003,34.14,568.25,-0.0061331,56.293,0.053828,supercritical,Ar,C7440371,argon,150.86,48.9805,13.41,0.07457121551081282,1.8000000000000003,11.368401710884944,0.0006594769800000001
271.55,558.46,20363.0,4.9109e-05,0.53349,3.276,92.746,15.007,34.127,569.1,-0.0064353,56.403,0.053922,supercritical,Ar,C7440371,argon,150.86,48.9805,13.41,0.07457121551081282,1.8000000000000003,11.401680260511837,0.0006585516900000001
271.55,560.09,20391.0,4.904e-05,0.52971,3.2764,92.718,15.011,34.114,569.95,-0.0067355,56.512,0.054016,supercritical,Ar,C7440371,argon,150.86,48.9805,13.41,0.07457121551081282,1.8000000000000003,11.43495881013873,0.0006576264
271.55,561.72,20420.0,4.8972e-05,0.52594,3.2768,92.69,15.015,34.101,570.8,-0.0070336,56.621,0.054111,supercritical,Ar,C7440371,argon,150.86,48.9805,13.41,0.07457121551081282,1.8000000000000003,11.468237359765622,0.0006567145200000001