Temperature (K),Pressure (bar),Density (mol/m3),Volume (m3/mol),Internal Energy (kJ/mol),Enthalpy (kJ/mol),Entropy (J/mol*K),Cv (J/mol*K),Cp (J/mol*K),Sound Spd. (m/s),Joule-Thomson (K/bar),Viscosity (uPa*s),Therm. Cond. (W/m*K),Phase,substance,substance_id,substance_name,Tc,Pc,rhoc,Vmc,Tr,Pr,Vmr
271.55,142.81,6965.6,0.00014356,2.3539,4.4041,108.06,13.676,30.794,334.4,0.24743,26.703,0.02461,supercritical,Ar,C7440371,argon,150.86,48.9805,13.41,0.07457121551081282,1.8000000000000003,2.915650105654291,0.0019251396
271.55,144.44,7047.7,0.00014189,2.3423,4.3917,107.93,13.686,30.899,335.02,0.24528,26.801,0.024731,supercritical,Ar,C7440371,argon,150.86,48.9805,13.41,0.07457121551081282,1.8000000000000003,2.9489286552811835,0.0019027449000000004
271.55,146.07,7129.7,0.00014026,2.3307,4.3794,107.8,13.697,31.003,335.65,0.24313,26.9,0.024852,supercritical,Ar,C7440371,argon,150.86,48.9805,13.41,0.07457121551081282,1.8000000000000003,2.9822072049080757,0.0018808866
271.55,147.7,7211.7,0.00013866,2.3191,4.3672,107.67,13.707,31.106,336.28,0.24098,26.999,0.024973,supercritical,Ar,C7440371,argon,150.86,48.9805,13.41,0.07457121551081282,1.8000000000000003,3.015485754534968,0.0018594306000000002
271.55,149.33,7293.5,0.00013711,2.3076,4.355,107.54,13.717,31.208,336.92,0.23885,27.099,0.025095,supercritical,Ar,C7440371,argon,150.86,48.9805,13.41,0.07457121551081282,1.8000000000000003,3.048764304161861,0.0018386451000000001
271.55,150.96,7375.2,0.00013559,2.296,4.3429,107.42,13.727,31.309,337.57,0.23672,27.199,0.025216,supercritical,Ar,C7440371,argon,150.86,48.9805,13.41,0.07457121551081282,1.8000000000000003,3.082042853788753,0.0018182619000000001
271.55,152.59,7456.8,0.00013411,2.2845,4.3308,107.29,13.737,31.409,338.23,0.2346,27.3,0.025338,supercritical,Ar,C7440371,argon,150.86,48.9805,13.41,0.07457121551081282,1.8000000000000003,3.115321403415645,0.0017984151000000003
271.55,154.22,7538.3,0.00013266,2.273,4.3189,107.17,13.747,31.507,338.89,0.23249,27.401,0.02546,supercritical,Ar,C7440371,argon,150.86,48.9805,13.41,0.07457121551081282,1.8000000000000003,3.1485999530425373,0.0017789706000000001
271.55,155.85,7619.7,0.00013124,2.2616,4.307,107.04,13.757,31.605,339.56,0.23038,27.502,0.025583,supercritical,Ar,C7440371,argon,150.86,48.9805,13.41,0.07457121551081282,1.8000000000000003,3.1818785026694294,0.0017599284000000001
271.55,157.48,7700.9,0.00012985,2.2502,4.2951,106.92,13.767,31.702,340.23,0.22829,27.604,0.025705,supercritical,Ar,C7440371,argon,150.86,48.9805,13.41,0.07457121551081282,1.8000000000000003,3.215157052296322,0.0017412885000000003
271.55,159.11,7782.0,0.0001285,2.2388,4.2834,106.8,13.777,31.798,340.92,0.2262,27.707,0.025828,supercritical,Ar,C7440371,argon,150.86,48.9805,13.41,0.07457121551081282,1.8000000000000003,3.2484356019232146,0.0017231850000000003
271.55,160.74,7863.0,0.00012718,2.2274,4.2717,106.68,13.786,31.892,341.6,0.22412,27.81,0.025951,supercritical,Ar,C7440371,argon,150.86,48.9805,13.41,0.07457121551081282,1.8000000000000003,3.2817141515501067,0.0017054838000000003
271.55,162.37,7943.8,0.00012588,2.2161,4.2601,106.56,13.796,31.986,342.3,0.22205,27.913,0.026073,supercritical,Ar,C7440371,argon,150.86,48.9805,13.41,0.07457121551081282,1.8000000000000003,3.3149927011769993,0.0016880508000000002
271.55,164.0,8024.5,0.00012462,2.2048,4.2485,106.44,13.805,32.078,343.0,0.21999,28.017,0.026197,supercritical,Ar,C7440371,argon,150.86,48.9805,13.41,0.07457121551081282,1.8000000000000003,3.3482712508038914,0.0016711542000000003
271.55,165.63,8105.0,0.00012338,2.1935,4.2371,106.33,13.814,32.169,343.71,0.21794,28.121,0.02632,supercritical,Ar,C7440371,argon,150.86,48.9805,13.41,0.07457121551081282,1.8000000000000003,3.3815498004307836,0.0016545258000000003
271.55,167.26,8185.3,0.00012217,2.1822,4.2257,106.21,13.824,32.26,344.43,0.2159,28.225,0.026443,supercritical,Ar,C7440371,argon,150.86,48.9805,13.41,0.07457121551081282,1.8000000000000003,3.4148283500576757,0.0016382997000000002
271.55,168.89,8265.5,0.00012098,2.171,4.2143,106.1,13.833,32.349,345.15,0.21387,28.33,0.026566,supercritical,Ar,C7440371,argon,150.86,48.9805,13.41,0.07457121551081282,1.8000000000000003,3.4481068996845683,0.0016223418
271.55,170.52,8345.5,0.00011982,2.1599,4.2031,105.98,13.842,32.436,345.88,0.21185,28.436,0.02669,supercritical,Ar,C7440371,argon,150.86,48.9805,13.41,0.07457121551081282,1.8000000000000003,3.481385449311461,0.0016067862
271.55,172.15,8425.3,0.00011869,2.1487,4.1919,105.87,13.851,32.523,346.62,0.20984,28.541,0.026814,supercritical,Ar,C7440371,argon,150.86,48.9805,13.41,0.07457121551081282,1.8000000000000003,3.514663998938353,0.0015916329000000002
271.55,173.78,8505.0,0.00011758,2.1376,4.1809,105.76,13.86,32.608,347.36,0.20784,28.648,0.026937,supercritical,Ar,C7440371,argon,150.86,48.9805,13.41,0.07457121551081282,1.8000000000000003,3.5479425485652456,0.0015767478000000001
271.55,175.41,8584.5,0.00011649,2.1265,4.1699,105.65,13.869,32.693,348.1,0.20585,28.754,0.027061,supercritical,Ar,C7440371,argon,150.86,48.9805,13.41,0.07457121551081282,1.8000000000000003,3.5812210981921377,0.0015621309000000002
271.55,177.04,8663.8,0.00011542,2.1155,4.1589,105.54,13.877,32.776,348.86,0.20388,28.861,0.027185,supercritical,Ar,C7440371,argon,150.86,48.9805,13.41,0.07457121551081282,1.8000000000000003,3.61449964781903,0.0015477822000000002
271.55,178.67,8742.8,0.00011438,2.1045,4.1481,105.43,13.886,32.857,349.62,0.20191,28.969,0.027309,supercritical,Ar,C7440371,argon,150.86,48.9805,13.41,0.07457121551081282,1.8000000000000003,3.647778197445922,0.0015338358000000002
271.55,180.3,8821.7,0.00011336,2.0935,4.1373,105.32,13.894,32.938,350.39,0.19995,29.077,0.027434,supercritical,Ar,C7440371,argon,150.86,48.9805,13.41,0.07457121551081282,1.8000000000000003,3.681056747072815,0.0015201576
271.55,181.93,8900.4,0.00011235,2.0825,4.1266,105.21,13.903,33.017,351.16,0.198,29.185,0.027558,supercritical,Ar,C7440371,argon,150.86,48.9805,13.41,0.07457121551081282,1.8000000000000003,3.714335296699707,0.0015066135000000001
271.55,183.56,8978.9,0.00011137,2.0716,4.116,105.11,13.911,33.095,351.94,0.19607,29.294,0.027682,supercritical,Ar,C7440371,argon,150.86,48.9805,13.41,0.07457121551081282,1.8000000000000003,3.7476138463265993,0.0014934717000000001
271.55,185.19,9057.2,0.00011041,2.0608,4.1054,105.0,13.92,33.172,352.72,0.19414,29.403,0.027807,supercritical,Ar,C7440371,argon,150.86,48.9805,13.41,0.07457121551081282,1.8000000000000003,3.780892395953492,0.0014805981
271.55,186.82,9135.2,0.00010947,2.0499,4.095,104.9,13.928,33.248,353.51,0.19223,29.512,0.027931,supercritical,Ar,C7440371,argon,150.86,48.9805,13.41,0.07457121551081282,1.8000000000000003,3.814170945580384,0.0014679927
271.55,188.45,9213.0,0.00010854,2.0391,4.0846,104.79,13.936,33.322,354.31,0.19033,29.622,0.028056,supercritical,Ar,C7440371,argon,150.86,48.9805,13.41,0.07457121551081282,1.8000000000000003,3.847449495207276,0.0014555214000000001
271.55,190.08,9290.6,0.00010764,2.0284,4.0743,104.69,13.944,33.395,355.11,0.18844,29.733,0.028181,supercritical,Ar,C7440371,argon,150.86,48.9805,13.41,0.07457121551081282,1.8000000000000003,3.880728044834169,0.0014434524000000002
271.55,191.71,9368.0,0.00010675,2.0177,4.0641,104.59,13.952,33.467,355.91,0.18656,29.843,0.028306,supercritical,Ar,C7440371,argon,150.86,48.9805,13.41,0.07457121551081282,1.8000000000000003,3.9140065944610614,0.0014315175000000002
271.55,193.34,9445.2,0.00010587,2.007,4.054,104.49,13.96,33.538,356.73,0.18469,29.955,0.02843,supercritical,Ar,C7440371,argon,150.86,48.9805,13.41,0.07457121551081282,1.8000000000000003,3.9472851440879535,0.0014197167000000001
271.55,194.97,9522.1,0.00010502,1.9963,4.0439,104.39,13.968,33.607,357.54,0.18284,30.066,0.028555,supercritical,Ar,C7440371,argon,150.86,48.9805,13.41,0.07457121551081282,1.8000000000000003,3.9805636937148456,0.0014083182
271.55,196.6,9598.8,0.00010418,1.9857,4.0339,104.29,13.976,33.675,358.37,0.181,30.178,0.02868,supercritical,Ar,C7440371,argon,150.86,48.9805,13.41,0.07457121551081282,1.8000000000000003,4.013842243341738,0.0013970538000000002
271.55,198.23,9675.2,0.00010336,1.9752,4.024,104.19,13.984,33.742,359.19,0.17917,30.29,0.028806,supercritical,Ar,C7440371,argon,150.86,48.9805,13.41,0.07457121551081282,1.8000000000000003,4.04712079296863,0.0013860576000000002
271.55,199.86,9751.4,0.00010255,1.9647,4.0142,104.09,13.991,33.808,360.03,0.17735,30.403,0.028931,supercritical,Ar,C7440371,argon,150.86,48.9805,13.41,0.07457121551081282,1.8000000000000003,4.080399342595523,0.0013751955
271.55,201.49,9827.3,0.00010176,1.9542,4.0045,104.0,13.999,33.872,360.87,0.17554,30.516,0.029056,supercritical,Ar,C7440371,argon,150.86,48.9805,13.41,0.07457121551081282,1.8000000000000003,4.113677892222415,0.0013646016000000002
271.55,203.12,9903.0,0.00010098,1.9437,3.9948,103.9,14.006,33.935,361.71,0.17374,30.63,0.029182,supercritical,Ar,C7440371,argon,150.86,48.9805,13.41,0.07457121551081282,1.8000000000000003,4.146956441849308,0.0013541418000000002
271.55,204.75,9978.4,0.00010022,1.9333,3.9853,103.8,14.014,33.997,362.56,0.17196,30.744,0.029307,supercritical,Ar,C7440371,argon,150.86,48.9805,13.41,0.07457121551081282,1.8000000000000003,4.180234991476199,0.0013439502
271.55,206.38,10054.0,9.9467e-05,1.923,3.9758,103.71,14.021,34.058,363.41,0.17019,30.858,0.029433,supercritical,Ar,C7440371,argon,150.86,48.9805,13.41,0.07457121551081282,1.8000000000000003,4.213513541103092,0.0013338524700000002
271.55,208.01,10129.0,9.8731e-05,1.9127,3.9664,103.61,14.028,34.117,364.27,0.16843,30.973,0.029558,supercritical,Ar,C7440371,argon,150.86,48.9805,13.41,0.07457121551081282,1.8000000000000003,4.2467920907299845,0.0013239827100000002
271.55,209.64,10203.0,9.8009e-05,1.9024,3.957,103.52,14.036,34.176,365.13,0.16669,31.088,0.029684,supercritical,Ar,C7440371,argon,150.86,48.9805,13.41,0.07457121551081282,1.8000000000000003,4.280070640356876,0.00131430069
271.55,211.27,10278.0,9.7299e-05,1.8922,3.9478,103.43,14.043,34.233,366.0,0.16495,31.203,0.02981,supercritical,Ar,C7440371,argon,150.86,48.9805,13.41,0.07457121551081282,1.8000000000000003,4.31334918998377,0.0013047795900000003
271.55,212.9,10352.0,9.6603e-05,1.882,3.9386,103.34,14.05,34.288,366.87,0.16323,31.319,0.029936,supercritical,Ar,C7440371,argon,150.86,48.9805,13.41,0.07457121551081282,1.8000000000000003,4.346627739610661,0.0012954462300000002
271.55,214.53,10426.0,9.5918e-05,1.8718,3.9295,103.25,14.057,34.343,367.75,0.16152,31.435,0.030062,supercritical,Ar,C7440371,argon,150.86,48.9805,13.41,0.07457121551081282,1.8000000000000003,4.379906289237554,0.00128626038
271.55,216.16,10499.0,9.5246e-05,1.8617,3.9205,103.15,14.064,34.396,368.63,0.15983,31.552,0.030188,supercritical,Ar,C7440371,argon,150.86,48.9805,13.41,0.07457121551081282,1.8000000000000003,4.413184838864446,0.0012772488600000002
271.55,217.79,10572.0,9.4586e-05,1.8516,3.9116,103.06,14.071,34.449,369.52,0.15814,31.669,0.030314,supercritical,Ar,C7440371,argon,150.86,48.9805,13.41,0.07457121551081282,1.8000000000000003,4.446463388491338,0.0012683982600000003
271.55,219.42,10645.0,9.3937e-05,1.8416,3.9028,102.98,14.078,34.5,370.41,0.15647,31.786,0.03044,supercritical,Ar,C7440371,argon,150.86,48.9805,13.41,0.07457121551081282,1.8000000000000003,4.479741938118231,0.00125969517
271.55,221.05,10718.0,9.3299e-05,1.8316,3.894,102.89,14.084,34.549,371.3,0.15481,31.904,0.030566,supercritical,Ar,C7440371,argon,150.86,48.9805,13.41,0.07457121551081282,1.8000000000000003,4.513020487745123,0.00125113959
271.55,222.68,10791.0,9.2673e-05,1.8217,3.8854,102.8,14.091,34.598,372.2,0.15316,32.022,0.030693,supercritical,Ar,C7440371,argon,150.86,48.9805,13.41,0.07457121551081282,1.8000000000000003,4.546299037372016,0.00124274493
271.55,224.31,10863.0,9.2057e-05,1.8118,3.8768,102.71,14.098,34.645,373.1,0.15153,32.14,0.030819,supercritical,Ar,C7440371,argon,150.86,48.9805,13.41,0.07457121551081282,1.8000000000000003,4.579577586998908,0.0012344843700000001
271.55,225.94,10935.0,9.1452e-05,1.802,3.8682,102.63,14.104,34.692,374.01,0.14991,32.259,0.030946,supercritical,Ar,C7440371,argon,150.86,48.9805,13.41,0.07457121551081282,1.8000000000000003,4.6128561366258,0.0012263713200000002
271.55,227.57,11006.0,9.0857e-05,1.7922,3.8598,102.54,14.111,34.737,374.92,0.1483,32.378,0.031072,supercritical,Ar,C7440371,argon,150.86,48.9805,13.41,0.07457121551081282,1.8000000000000003,4.646134686252692,0.00121839237
271.55,229.2,11078.0,9.0272e-05,1.7824,3.8514,102.45,14.117,34.781,375.83,0.1467,32.498,0.031199,supercritical,Ar,C7440371,argon,150.86,48.9805,13.41,0.07457121551081282,1.8000000000000003,4.679413235879585,0.0012105475200000003
271.55,230.83,11149.0,8.9697e-05,1.7727,3.8432,102.37,14.124,34.824,376.75,0.14512,32.618,0.031325,supercritical,Ar,C7440371,argon,150.86,48.9805,13.41,0.07457121551081282,1.8000000000000003,4.712691785506477,0.0012028367700000003
271.55,232.46,11219.0,8.9132e-05,1.763,3.835,102.29,14.13,34.866,377.67,0.14355,32.738,0.031452,supercritical,Ar,C7440371,argon,150.86,48.9805,13.41,0.07457121551081282,1.8000000000000003,4.74597033513337,0.00119526012
271.55,234.09,11290.0,8.8575e-05,1.7534,3.8269,102.2,14.136,34.906,378.6,0.14199,32.858,0.031579,supercritical,Ar,C7440371,argon,150.86,48.9805,13.41,0.07457121551081282,1.8000000000000003,4.779248884760261,0.00118779075
271.55,235.72,11360.0,8.8029e-05,1.7438,3.8188,102.12,14.143,34.946,379.53,0.14044,32.979,0.031706,supercritical,Ar,C7440371,argon,150.86,48.9805,13.41,0.07457121551081282,1.8000000000000003,4.812527434387154,0.00118046889
271.55,237.35,11430.0,8.7491e-05,1.7343,3.8109,102.04,14.149,34.985,380.46,0.1389,33.1,0.031832,supercritical,Ar,C7440371,argon,150.86,48.9805,13.41,0.07457121551081282,1.8000000000000003,4.845805984014047,0.0011732543100000002
271.55,238.98,11499.0,8.6961e-05,1.7248,3.803,101.96,14.155,35.022,381.39,0.13738,33.222,0.031959,supercritical,Ar,C7440371,argon,150.86,48.9805,13.41,0.07457121551081282,1.8000000000000003,4.879084533640938,0.0011661470100000002
271.55,240.61,11569.0,8.6441e-05,1.7153,3.7952,101.88,14.161,35.059,382.33,0.13587,33.343,0.032086,supercritical,Ar,C7440371,argon,150.86,48.9805,13.41,0.07457121551081282,1.8000000000000003,4.912363083267832,0.0011591738100000001
271.55,242.24,11638.0,8.5929e-05,1.7059,3.7874,101.8,14.167,35.094,383.27,0.13437,33.465,0.032213,supercritical,Ar,C7440371,argon,150.86,48.9805,13.41,0.07457121551081282,1.8000000000000003,4.9456416328947235,0.0011523078900000001
271.55,243.87,11706.0,8.5425e-05,1.6965,3.7798,101.72,14.173,35.128,384.22,0.13289,33.588,0.03234,supercritical,Ar,C7440371,argon,150.86,48.9805,13.41,0.07457121551081282,1.8000000000000003,4.978920182521616,0.0011455492500000001
271.55,245.5,11775.0,8.4929e-05,1.6872,3.7722,101.64,14.179,35.162,385.16,0.13141,33.71,0.032468,supercritical,Ar,C7440371,argon,150.86,48.9805,13.41,0.07457121551081282,1.8000000000000003,5.012198732148508,0.0011388978900000002
271.55,247.13,11843.0,8.4441e-05,1.6779,3.7647,101.56,14.185,35.194,386.11,0.12995,33.833,0.032595,supercritical,Ar,C7440371,argon,150.86,48.9805,13.41,0.07457121551081282,1.8000000000000003,5.0454772817754,0.00113235381
271.55,248.76,11910.0,8.396e-05,1.6687,3.7573,101.48,14.191,35.225,387.07,0.1285,33.956,0.032722,supercritical,Ar,C7440371,argon,150.86,48.9805,13.41,0.07457121551081282,1.8000000000000003,5.078755831402293,0.0011259036000000001
271.55,250.39,11978.0,8.3488e-05,1.6595,3.75,101.4,14.197,35.256,388.02,0.12706,34.08,0.032849,supercritical,Ar,C7440371,argon,150.86,48.9805,13.41,0.07457121551081282,1.8000000000000003,5.112034381029185,0.00111957408
271.55,252.02,12045.0,8.3022e-05,1.6504,3.7427,101.33,14.203,35.285,388.98,0.12564,34.203,0.032976,supercritical,Ar,C7440371,argon,150.86,48.9805,13.41,0.07457121551081282,1.8000000000000003,5.145312930656078,0.0011133250200000002
271.55,253.65,12112.0,8.2564e-05,1.6413,3.7355,101.25,14.208,35.313,389.94,0.12422,34.327,0.033103,supercritical,Ar,C7440371,argon,150.86,48.9805,13.41,0.07457121551081282,1.8000000000000003,5.17859148028297,0.0011071832400000002
271.55,255.28,12178.0,8.2113e-05,1.6322,3.7284,101.18,14.214,35.341,390.91,0.12282,34.451,0.033231,supercritical,Ar,C7440371,argon,150.86,48.9805,13.41,0.07457121551081282,1.8000000000000003,5.211870029909862,0.0011011353300000002
271.55,256.91,12245.0,8.1669e-05,1.6232,3.7214,101.1,14.22,35.367,391.87,0.12143,34.576,0.033358,supercritical,Ar,C7440371,argon,150.86,48.9805,13.41,0.07457121551081282,1.8000000000000003,5.245148579536755,0.0010951812900000001
271.55,258.54,12311.0,8.1231e-05,1.6143,3.7144,101.03,14.225,35.393,392.84,0.12005,34.7,0.033485,supercritical,Ar,C7440371,argon,150.86,48.9805,13.41,0.07457121551081282,1.8000000000000003,5.2784271291636475,0.00108930771
271.55,260.17,12376.0,8.08e-05,1.6053,3.7075,100.95,14.231,35.418,393.81,0.11869,34.825,0.033612,supercritical,Ar,C7440371,argon,150.86,48.9805,13.41,0.07457121551081282,1.8000000000000003,5.311705678790539,0.001083528
271.55,261.8,12442.0,8.0376e-05,1.5965,3.7007,100.88,14.236,35.442,394.79,0.11733,34.95,0.033739,supercritical,Ar,C7440371,argon,150.86,48.9805,13.41,0.07457121551081282,1.8000000000000003,5.344984228417432,0.00107784216
271.55,263.43,12507.0,7.9958e-05,1.5876,3.694,100.81,14.242,35.464,395.76,0.11599,35.075,0.033867,supercritical,Ar,C7440371,argon,150.86,48.9805,13.41,0.07457121551081282,1.8000000000000003,5.378262778044324,0.00107223678
271.55,265.06,12571.0,7.9547e-05,1.5788,3.6873,100.73,14.247,35.487,396.74,0.11465,35.2,0.033994,supercritical,Ar,C7440371,argon,150.86,48.9805,13.41,0.07457121551081282,1.8000000000000003,5.411541327671216,0.0010667252700000001
271.55,266.69,12636.0,7.9141e-05,1.5701,3.6807,100.66,14.253,35.508,397.72,0.11333,35.326,0.034121,supercritical,Ar,C7440371,argon,150.86,48.9805,13.41,0.07457121551081282,1.8000000000000003,5.444819877298109,0.00106128081
271.55,268.32,12700.0,7.8742e-05,1.5614,3.6742,100.59,14.258,35.528,398.7,0.11202,35.452,0.034248,supercritical,Ar,C7440371,argon,150.86,48.9805,13.41,0.07457121551081282,1.8000000000000003,5.478098426925,0.00105593022
271.55,269.95,12764.0,7.8348e-05,1.5527,3.6677,100.52,14.264,35.548,399.68,0.11073,35.577,0.034375,supercritical,Ar,C7440371,argon,150.86,48.9805,13.41,0.07457121551081282,1.8000000000000003,5.511376976551893,0.0010506466800000002
271.55,271.58,12827.0,7.796e-05,1.5441,3.6613,100.45,14.269,35.567,400.67,0.10944,35.703,0.034502,supercritical,Ar,C7440371,argon,150.86,48.9805,13.41,0.07457121551081282,1.8000000000000003,5.5446555261787855,0.0010454436000000003
271.55,273.21,12890.0,7.7578e-05,1.5355,3.655,100.38,14.274,35.585,401.66,0.10816,35.829,0.034629,supercritical,Ar,C7440371,argon,150.86,48.9805,13.41,0.07457121551081282,1.8000000000000003,5.577934075805677,0.00104032098
271.55,274.84,12953.0,7.7201e-05,1.527,3.6488,100.31,14.279,35.602,402.65,0.1069,35.955,0.034756,supercritical,Ar,C7440371,argon,150.86,48.9805,13.41,0.07457121551081282,1.8000000000000003,5.61121262543257,0.00103526541
271.55,276.47,13016.0,7.683e-05,1.5185,3.6426,100.24,14.285,35.618,403.64,0.10564,36.082,0.034883,supercritical,Ar,C7440371,argon,150.86,48.9805,13.41,0.07457121551081282,1.8000000000000003,5.644491175059463,0.0010302903
271.55,278.1,13078.0,7.6464e-05,1.5101,3.6365,100.17,14.29,35.634,404.63,0.1044,36.208,0.03501,supercritical,Ar,C7440371,argon,150.86,48.9805,13.41,0.07457121551081282,1.8000000000000003,5.677769724686355,0.0010253822400000002
271.55,279.73,13140.0,7.6103e-05,1.5017,3.6305,100.1,14.295,35.649,405.62,0.10317,36.335,0.035136,supercritical,Ar,C7440371,argon,150.86,48.9805,13.41,0.07457121551081282,1.8000000000000003,5.711048274313248,0.0010205412300000002
271.55,281.36,13202.0,7.5747e-05,1.4933,3.6245,100.04,14.3,35.663,406.62,0.10195,36.461,0.035263,supercritical,Ar,C7440371,argon,150.86,48.9805,13.41,0.07457121551081282,1.8000000000000003,5.74432682394014,0.00101576727
271.55,282.99,13263.0,7.5397e-05,1.485,3.6186,99.969,14.305,35.676,407.61,0.10074,36.588,0.03539,supercritical,Ar,C7440371,argon,150.86,48.9805,13.41,0.07457121551081282,1.8000000000000003,5.777605373567032,0.00101107377