Temperature (K),Pressure (bar),Density (mol/m3),Volume (m3/mol),Internal Energy (kJ/mol),Enthalpy (kJ/mol),Entropy (J/mol*K),Cv (J/mol*K),Cp (J/mol*K),Sound Spd. (m/s),Joule-Thomson (K/bar),Viscosity (uPa*s),Therm. Cond. (W/m*K),Phase,substance,substance_id,substance_name,Tc,Pc,rhoc,Vmc,Tr,Pr,Vmr
165.95,445.99,28592.0,3.4975e-05,-2.2811,-0.7212,76.144,17.337,39.507,696.46,-0.030297,102.53,0.084221,supercritical,Ar,C7440371,argon,150.86,48.9805,13.41,0.07457121551081282,1.1,9.105460336256266,0.0004690147500000001
165.95,447.62,28611.0,3.4952e-05,-2.2838,-0.71925,76.122,17.342,39.478,697.4,-0.030452,102.71,0.084345,supercritical,Ar,C7440371,argon,150.86,48.9805,13.41,0.07457121551081282,1.1,9.138738885883157,0.00046870632000000007
165.95,449.25,28630.0,3.4929e-05,-2.2865,-0.71728,76.099,17.347,39.45,698.34,-0.030605,102.9,0.084469,supercritical,Ar,C7440371,argon,150.86,48.9805,13.41,0.07457121551081282,1.1,9.17201743551005,0.00046839789000000003
165.95,450.88,28649.0,3.4906e-05,-2.2891,-0.71531,76.077,17.352,39.421,699.27,-0.030757,103.08,0.084593,supercritical,Ar,C7440371,argon,150.86,48.9805,13.41,0.07457121551081282,1.1,9.205295985136942,0.00046808946000000004
165.95,452.51,28668.0,3.4883e-05,-2.2918,-0.71333,76.055,17.357,39.393,700.2,-0.030908,103.27,0.084717,supercritical,Ar,C7440371,argon,150.86,48.9805,13.41,0.07457121551081282,1.1,9.238574534763835,0.00046778103
165.95,454.14,28686.0,3.486e-05,-2.2945,-0.71134,76.032,17.362,39.366,701.13,-0.031057,103.45,0.08484,supercritical,Ar,C7440371,argon,150.86,48.9805,13.41,0.07457121551081282,1.1,9.271853084390727,0.00046747260000000007
165.95,455.77,28705.0,3.4837e-05,-2.2971,-0.70934,76.01,17.367,39.338,702.06,-0.031206,103.63,0.084963,supercritical,Ar,C7440371,argon,150.86,48.9805,13.41,0.07457121551081282,1.1,9.305131634017618,0.00046716417
165.95,457.4,28724.0,3.4814e-05,-2.2997,-0.70734,75.988,17.373,39.311,702.98,-0.031353,103.82,0.085086,supercritical,Ar,C7440371,argon,150.86,48.9805,13.41,0.07457121551081282,1.1,9.33841018364451,0.0004668557400000001
165.95,459.03,28743.0,3.4792e-05,-2.3024,-0.70533,75.966,17.378,39.283,703.9,-0.0315,104.0,0.085209,supercritical,Ar,C7440371,argon,150.86,48.9805,13.41,0.07457121551081282,1.1,9.371688733271403,0.0004665607200000001
165.95,460.66,28761.0,3.4769e-05,-2.305,-0.7033,75.944,17.383,39.256,704.82,-0.031645,104.18,0.085331,supercritical,Ar,C7440371,argon,150.86,48.9805,13.41,0.07457121551081282,1.1,9.404967282898298,0.00046625229000000004
165.95,462.29,28780.0,3.4747e-05,-2.3076,-0.70128,75.922,17.388,39.23,705.73,-0.031789,104.36,0.085453,supercritical,Ar,C7440371,argon,150.86,48.9805,13.41,0.07457121551081282,1.1,9.438245832525189,0.00046595727000000003
165.95,463.92,28798.0,3.4724e-05,-2.3102,-0.69924,75.9,17.393,39.203,706.64,-0.031932,104.55,0.085575,supercritical,Ar,C7440371,argon,150.86,48.9805,13.41,0.07457121551081282,1.1,9.471524382152081,0.00046564884000000004
165.95,465.55,28817.0,3.4702e-05,-2.3128,-0.69719,75.878,17.398,39.177,707.55,-0.032075,104.73,0.085697,supercritical,Ar,C7440371,argon,150.86,48.9805,13.41,0.07457121551081282,1.1,9.504802931778974,0.00046535382000000003
165.95,467.18,28835.0,3.468e-05,-2.3153,-0.69514,75.857,17.403,39.151,708.46,-0.032216,104.91,0.085819,supercritical,Ar,C7440371,argon,150.86,48.9805,13.41,0.07457121551081282,1.1,9.538081481405866,0.0004650588
165.95,468.81,28853.0,3.4658e-05,-2.3179,-0.69308,75.835,17.408,39.125,709.37,-0.032356,105.09,0.08594,supercritical,Ar,C7440371,argon,150.86,48.9805,13.41,0.07457121551081282,1.1,9.571360031032759,0.00046476378
165.95,470.44,28871.0,3.4636e-05,-2.3205,-0.69102,75.813,17.414,39.099,710.27,-0.032495,105.27,0.086061,supercritical,Ar,C7440371,argon,150.86,48.9805,13.41,0.07457121551081282,1.1,9.60463858065965,0.00046446876
165.95,472.07,28889.0,3.4615e-05,-2.323,-0.68894,75.792,17.419,39.073,711.17,-0.032633,105.45,0.086182,supercritical,Ar,C7440371,argon,150.86,48.9805,13.41,0.07457121551081282,1.1,9.637917130286542,0.00046418715
165.95,473.7,28908.0,3.4593e-05,-2.3255,-0.68686,75.77,17.424,39.048,712.07,-0.03277,105.63,0.086303,supercritical,Ar,C7440371,argon,150.86,48.9805,13.41,0.07457121551081282,1.1,9.671195679913435,0.00046389213
165.95,475.33,28926.0,3.4572e-05,-2.3281,-0.68477,75.749,17.429,39.023,712.96,-0.032906,105.82,0.086423,supercritical,Ar,C7440371,argon,150.86,48.9805,13.41,0.07457121551081282,1.1,9.704474229540327,0.00046361052
165.95,476.96,28943.0,3.455e-05,-2.3306,-0.68267,75.728,17.434,38.997,713.85,-0.033041,106.0,0.086543,supercritical,Ar,C7440371,argon,150.86,48.9805,13.41,0.07457121551081282,1.1,9.73775277916722,0.0004633155
165.95,478.59,28961.0,3.4529e-05,-2.3331,-0.68057,75.707,17.439,38.973,714.74,-0.033175,106.18,0.086663,supercritical,Ar,C7440371,argon,150.86,48.9805,13.41,0.07457121551081282,1.1,9.77103132879411,0.00046303389000000003
165.95,480.22,28979.0,3.4508e-05,-2.3356,-0.67846,75.685,17.444,38.948,715.63,-0.033309,106.36,0.086783,supercritical,Ar,C7440371,argon,150.86,48.9805,13.41,0.07457121551081282,1.1,9.804309878421005,0.00046275228000000005
165.95,481.85,28997.0,3.4486e-05,-2.3381,-0.67634,75.664,17.449,38.923,716.51,-0.033441,106.53,0.086903,supercritical,Ar,C7440371,argon,150.86,48.9805,13.41,0.07457121551081282,1.1,9.837588428047898,0.00046245726000000004
165.95,483.48,29015.0,3.4465e-05,-2.3405,-0.67421,75.643,17.454,38.899,717.39,-0.033572,106.71,0.087022,supercritical,Ar,C7440371,argon,150.86,48.9805,13.41,0.07457121551081282,1.1,9.870866977674789,0.00046217565000000006
165.95,485.11,29032.0,3.4444e-05,-2.343,-0.67208,75.622,17.459,38.875,718.27,-0.033703,106.89,0.087142,supercritical,Ar,C7440371,argon,150.86,48.9805,13.41,0.07457121551081282,1.1,9.904145527301681,0.00046189404
165.95,486.74,29050.0,3.4424e-05,-2.3455,-0.66994,75.601,17.465,38.851,719.15,-0.033832,107.07,0.087261,supercritical,Ar,C7440371,argon,150.86,48.9805,13.41,0.07457121551081282,1.1,9.937424076928574,0.00046162584000000007
165.95,488.37,29067.0,3.4403e-05,-2.3479,-0.6678,75.58,17.47,38.827,720.03,-0.033961,107.25,0.087379,supercritical,Ar,C7440371,argon,150.86,48.9805,13.41,0.07457121551081282,1.1,9.970702626555466,0.0004613442300000001
165.95,490.0,29085.0,3.4382e-05,-2.3504,-0.66564,75.56,17.475,38.803,720.9,-0.034088,107.43,0.087498,supercritical,Ar,C7440371,argon,150.86,48.9805,13.41,0.07457121551081282,1.1,10.003981176182359,0.00046106262
165.95,491.63,29102.0,3.4362e-05,-2.3528,-0.66349,75.539,17.48,38.78,721.77,-0.034215,107.61,0.087617,supercritical,Ar,C7440371,argon,150.86,48.9805,13.41,0.07457121551081282,1.1,10.037259725809252,0.00046079442000000005
165.95,493.26,29120.0,3.4341e-05,-2.3552,-0.66132,75.518,17.485,38.757,722.64,-0.034341,107.79,0.087735,supercritical,Ar,C7440371,argon,150.86,48.9805,13.41,0.07457121551081282,1.1,10.070538275436142,0.00046051281000000007
165.95,494.89,29137.0,3.4321e-05,-2.3576,-0.65915,75.498,17.49,38.733,723.5,-0.034466,107.96,0.087853,supercritical,Ar,C7440371,argon,150.86,48.9805,13.41,0.07457121551081282,1.1,10.103816825063035,0.00046024461
165.95,496.52,29154.0,3.43e-05,-2.3601,-0.65697,75.477,17.495,38.71,724.37,-0.034591,108.14,0.087971,supercritical,Ar,C7440371,argon,150.86,48.9805,13.41,0.07457121551081282,1.1,10.137095374689927,0.00045996300000000003
165.95,498.15,29171.0,3.428e-05,-2.3625,-0.65478,75.456,17.5,38.688,725.23,-0.034714,108.32,0.088088,supercritical,Ar,C7440371,argon,150.86,48.9805,13.41,0.07457121551081282,1.1,10.17037392431682,0.0004596948
165.95,499.78,29188.0,3.426e-05,-2.3648,-0.65259,75.436,17.505,38.665,726.09,-0.034837,108.5,0.088206,supercritical,Ar,C7440371,argon,150.86,48.9805,13.41,0.07457121551081282,1.1,10.203652473943713,0.00045942660000000007
165.95,501.41,29205.0,3.424e-05,-2.3672,-0.65039,75.416,17.51,38.642,726.94,-0.034958,108.67,0.088323,supercritical,Ar,C7440371,argon,150.86,48.9805,13.41,0.07457121551081282,1.1,10.236931023570605,0.0004591584
165.95,503.04,29222.0,3.422e-05,-2.3696,-0.64819,75.395,17.515,38.62,727.8,-0.035079,108.85,0.08844,supercritical,Ar,C7440371,argon,150.86,48.9805,13.41,0.07457121551081282,1.1,10.270209573197498,0.00045889020000000006
165.95,504.67,29239.0,3.42e-05,-2.372,-0.64597,75.375,17.52,38.598,728.65,-0.035199,109.03,0.088557,supercritical,Ar,C7440371,argon,150.86,48.9805,13.41,0.07457121551081282,1.1,10.30348812282439,0.000458622
165.95,506.3,29256.0,3.4181e-05,-2.3743,-0.64376,75.355,17.525,38.576,729.5,-0.035319,109.2,0.088673,supercritical,Ar,C7440371,argon,150.86,48.9805,13.41,0.07457121551081282,1.1,10.336766672451281,0.00045836721
165.95,507.93,29273.0,3.4161e-05,-2.3767,-0.64153,75.335,17.53,38.554,730.35,-0.035437,109.38,0.08879,supercritical,Ar,C7440371,argon,150.86,48.9805,13.41,0.07457121551081282,1.1,10.370045222078174,0.0004580990100000001
165.95,509.56,29290.0,3.4141e-05,-2.379,-0.6393,75.314,17.535,38.532,731.19,-0.035555,109.55,0.088906,supercritical,Ar,C7440371,argon,150.86,48.9805,13.41,0.07457121551081282,1.1,10.403323771705066,0.00045783081
165.95,511.19,29307.0,3.4122e-05,-2.3813,-0.63707,75.294,17.54,38.51,732.04,-0.035672,109.73,0.089022,supercritical,Ar,C7440371,argon,150.86,48.9805,13.41,0.07457121551081282,1.1,10.436602321331959,0.0004575760200000001
165.95,512.82,29323.0,3.4102e-05,-2.3837,-0.63482,75.274,17.545,38.489,732.88,-0.035788,109.91,0.089138,supercritical,Ar,C7440371,argon,150.86,48.9805,13.41,0.07457121551081282,1.1,10.469880870958852,0.00045730782000000003
165.95,514.45,29340.0,3.4083e-05,-2.386,-0.63258,75.255,17.55,38.467,733.72,-0.035903,110.08,0.089254,supercritical,Ar,C7440371,argon,150.86,48.9805,13.41,0.07457121551081282,1.1,10.503159420585744,0.00045705303
165.95,516.08,29357.0,3.4064e-05,-2.3883,-0.63032,75.235,17.555,38.446,734.55,-0.036018,110.26,0.089369,supercritical,Ar,C7440371,argon,150.86,48.9805,13.41,0.07457121551081282,1.1,10.536437970212637,0.00045679824000000003
165.95,517.71,29373.0,3.4045e-05,-2.3906,-0.62806,75.215,17.56,38.425,735.39,-0.036132,110.43,0.089485,supercritical,Ar,C7440371,argon,150.86,48.9805,13.41,0.07457121551081282,1.1,10.56971651983953,0.00045654345
165.95,519.34,29390.0,3.4026e-05,-2.3929,-0.6258,75.195,17.565,38.404,736.22,-0.036245,110.61,0.0896,supercritical,Ar,C7440371,argon,150.86,48.9805,13.41,0.07457121551081282,1.1,10.602995069466422,0.0004562886600000001
165.95,520.97,29406.0,3.4007e-05,-2.3952,-0.62352,75.175,17.57,38.383,737.05,-0.036357,110.78,0.089715,supercritical,Ar,C7440371,argon,150.86,48.9805,13.41,0.07457121551081282,1.1,10.636273619093313,0.00045603387000000005
165.95,522.6,29422.0,3.3988e-05,-2.3974,-0.62125,75.156,17.575,38.363,737.88,-0.036469,110.95,0.089831,supercritical,Ar,C7440371,argon,150.86,48.9805,13.41,0.07457121551081282,1.1,10.669552168720205,0.0004557790800000001
165.95,524.23,29439.0,3.3969e-05,-2.3997,-0.61896,75.136,17.58,38.342,738.71,-0.03658,111.13,0.089946,supercritical,Ar,C7440371,argon,150.86,48.9805,13.41,0.07457121551081282,1.1,10.702830718347098,0.00045552429000000005
165.95,525.86,29455.0,3.395e-05,-2.402,-0.61667,75.116,17.585,38.322,739.53,-0.03669,111.3,0.090062,supercritical,Ar,C7440371,argon,150.86,48.9805,13.41,0.07457121551081282,1.1,10.73610926797399,0.0004552695
165.95,527.49,29471.0,3.3931e-05,-2.4042,-0.61438,75.097,17.59,38.301,740.35,-0.036799,111.48,0.090177,supercritical,Ar,C7440371,argon,150.86,48.9805,13.41,0.07457121551081282,1.1,10.769387817600883,0.00045501471
165.95,529.12,29488.0,3.3913e-05,-2.4065,-0.61208,75.077,17.595,38.281,741.17,-0.036908,111.65,0.090292,supercritical,Ar,C7440371,argon,150.86,48.9805,13.41,0.07457121551081282,1.1,10.802666367227774,0.00045477333000000004
165.95,530.75,29504.0,3.3894e-05,-2.4087,-0.60977,75.058,17.6,38.261,741.99,-0.037016,111.82,0.090406,supercritical,Ar,C7440371,argon,150.86,48.9805,13.41,0.07457121551081282,1.1,10.835944916854666,0.00045451854
165.95,532.38,29520.0,3.3876e-05,-2.4109,-0.60746,75.039,17.605,38.241,742.81,-0.037124,112.0,0.090521,supercritical,Ar,C7440371,argon,150.86,48.9805,13.41,0.07457121551081282,1.1,10.869223466481559,0.00045427716
165.95,534.01,29536.0,3.3857e-05,-2.4132,-0.60514,75.019,17.61,38.222,743.62,-0.03723,112.17,0.090635,supercritical,Ar,C7440371,argon,150.86,48.9805,13.41,0.07457121551081282,1.1,10.902502016108452,0.00045402237000000004
165.95,535.64,29552.0,3.3839e-05,-2.4154,-0.60282,75.0,17.615,38.202,744.44,-0.037336,112.34,0.090749,supercritical,Ar,C7440371,argon,150.86,48.9805,13.41,0.07457121551081282,1.1,10.935780565735344,0.00045378099000000004
165.95,537.27,29568.0,3.3821e-05,-2.4176,-0.6005,74.981,17.62,38.183,745.25,-0.037442,112.52,0.090863,supercritical,Ar,C7440371,argon,150.86,48.9805,13.41,0.07457121551081282,1.1,10.969059115362235,0.00045353961000000004
165.95,538.9,29584.0,3.3802e-05,-2.4198,-0.59816,74.962,17.625,38.163,746.06,-0.037546,112.69,0.090977,supercritical,Ar,C7440371,argon,150.86,48.9805,13.41,0.07457121551081282,1.1,11.002337664989128,0.00045328482
165.95,540.53,29599.0,3.3784e-05,-2.422,-0.59582,74.943,17.63,38.144,746.86,-0.03765,112.86,0.091091,supercritical,Ar,C7440371,argon,150.86,48.9805,13.41,0.07457121551081282,1.1,11.03561621461602,0.00045304344000000006
165.95,542.16,29615.0,3.3766e-05,-2.4242,-0.59348,74.924,17.635,38.125,747.67,-0.037754,113.04,0.091204,supercritical,Ar,C7440371,argon,150.86,48.9805,13.41,0.07457121551081282,1.1,11.068894764242913,0.00045280206000000006
165.95,543.79,29631.0,3.3748e-05,-2.4263,-0.59113,74.905,17.64,38.106,748.47,-0.037856,113.21,0.091318,supercritical,Ar,C7440371,argon,150.86,48.9805,13.41,0.07457121551081282,1.1,11.102173313869805,0.00045256068000000006
165.95,545.42,29647.0,3.3731e-05,-2.4285,-0.58878,74.886,17.645,38.087,749.27,-0.037958,113.38,0.091431,supercritical,Ar,C7440371,argon,150.86,48.9805,13.41,0.07457121551081282,1.1,11.135451863496696,0.00045233271000000004
165.95,547.05,29662.0,3.3713e-05,-2.4307,-0.58642,74.867,17.65,38.068,750.07,-0.03806,113.55,0.091544,supercritical,Ar,C7440371,argon,150.86,48.9805,13.41,0.07457121551081282,1.1,11.168730413123589,0.00045209133000000004
165.95,548.68,29678.0,3.3695e-05,-2.4328,-0.58405,74.848,17.655,38.05,750.87,-0.038161,113.72,0.091657,supercritical,Ar,C7440371,argon,150.86,48.9805,13.41,0.07457121551081282,1.1,11.202008962750481,0.00045184995000000004
165.95,550.31,29694.0,3.3677e-05,-2.435,-0.58169,74.829,17.66,38.031,751.66,-0.038261,113.9,0.091769,supercritical,Ar,C7440371,argon,150.86,48.9805,13.41,0.07457121551081282,1.1,11.235287512377374,0.0004516085700000001
165.95,551.94,29709.0,3.366e-05,-2.4371,-0.57931,74.81,17.665,38.013,752.45,-0.03836,114.07,0.091882,supercritical,Ar,C7440371,argon,150.86,48.9805,13.41,0.07457121551081282,1.1,11.268566062004268,0.0004513806
165.95,553.57,29725.0,3.3642e-05,-2.4393,-0.57693,74.792,17.67,37.994,753.25,-0.038459,114.24,0.091994,supercritical,Ar,C7440371,argon,150.86,48.9805,13.41,0.07457121551081282,1.1,11.30184461163116,0.0004511392200000001
165.95,555.2,29740.0,3.3625e-05,-2.4414,-0.57455,74.773,17.675,37.976,754.04,-0.038558,114.41,0.092106,supercritical,Ar,C7440371,argon,150.86,48.9805,13.41,0.07457121551081282,1.1,11.335123161258053,0.00045091125
165.95,556.83,29755.0,3.3607e-05,-2.4435,-0.57216,74.754,17.68,37.958,754.82,-0.038655,114.58,0.092218,supercritical,Ar,C7440371,argon,150.86,48.9805,13.41,0.07457121551081282,1.1,11.368401710884944,0.00045066987000000005
165.95,558.46,29771.0,3.359e-05,-2.4456,-0.56976,74.736,17.685,37.94,755.61,-0.038752,114.75,0.09233,supercritical,Ar,C7440371,argon,150.86,48.9805,13.41,0.07457121551081282,1.1,11.401680260511837,0.0004504419000000001
165.95,560.09,29786.0,3.3573e-05,-2.4477,-0.56736,74.717,17.689,37.922,756.39,-0.038849,114.92,0.092441,supercritical,Ar,C7440371,argon,150.86,48.9805,13.41,0.07457121551081282,1.1,11.43495881013873,0.00045021393
165.95,561.72,29801.0,3.3555e-05,-2.4498,-0.56496,74.699,17.694,37.904,757.18,-0.038945,115.09,0.092553,supercritical,Ar,C7440371,argon,150.86,48.9805,13.41,0.07457121551081282,1.1,11.468237359765622,0.00044997255000000006
165.95,563.35,29817.0,3.3538e-05,-2.4519,-0.56255,74.68,17.699,37.887,757.96,-0.03904,115.26,0.092664,supercritical,Ar,C7440371,argon,150.86,48.9805,13.41,0.07457121551081282,1.1,11.501515909392515,0.0004497445800000001
165.95,564.98,29832.0,3.3521e-05,-2.454,-0.56014,74.662,17.704,37.869,758.74,-0.039135,115.43,0.092775,supercritical,Ar,C7440371,argon,150.86,48.9805,13.41,0.07457121551081282,1.1,11.534794459019405,0.00044951661000000007
165.95,566.61,29847.0,3.3504e-05,-2.4561,-0.55772,74.644,17.709,37.852,759.51,-0.039229,115.6,0.092886,supercritical,Ar,C7440371,argon,150.86,48.9805,13.41,0.07457121551081282,1.1,11.568073008646298,0.0004492886400000001
165.95,568.24,29862.0,3.3487e-05,-2.4582,-0.5553,74.625,17.714,37.834,760.29,-0.039323,115.77,0.092996,supercritical,Ar,C7440371,argon,150.86,48.9805,13.41,0.07457121551081282,1.1,11.60135155827319,0.00044906067
165.95,569.87,29877.0,3.347e-05,-2.4603,-0.55287,74.607,17.719,37.817,761.06,-0.039416,115.94,0.093107,supercritical,Ar,C7440371,argon,150.86,48.9805,13.41,0.07457121551081282,1.1,11.634630107900083,0.0004488327000000001
165.95,571.5,29892.0,3.3454e-05,-2.4623,-0.55044,74.589,17.724,37.8,761.83,-0.039508,116.11,0.093217,supercritical,Ar,C7440371,argon,150.86,48.9805,13.41,0.07457121551081282,1.1,11.667908657526976,0.00044861814000000006
165.95,573.13,29907.0,3.3437e-05,-2.4644,-0.548,74.571,17.729,37.783,762.6,-0.0396,116.28,0.093328,supercritical,Ar,C7440371,argon,150.86,48.9805,13.41,0.07457121551081282,1.1,11.701187207153868,0.00044839017000000003
165.95,574.76,29922.0,3.342e-05,-2.4664,-0.54556,74.553,17.734,37.766,763.37,-0.039692,116.45,0.093438,supercritical,Ar,C7440371,argon,150.86,48.9805,13.41,0.07457121551081282,1.1,11.734465756780759,0.00044816220000000006
165.95,576.39,29937.0,3.3404e-05,-2.4685,-0.54312,74.534,17.738,37.749,764.14,-0.039783,116.62,0.093548,supercritical,Ar,C7440371,argon,150.86,48.9805,13.41,0.07457121551081282,1.1,11.767744306407652,0.00044794764000000007
165.95,578.02,29952.0,3.3387e-05,-2.4705,-0.54067,74.516,17.743,37.733,764.9,-0.039873,116.79,0.093658,supercritical,Ar,C7440371,argon,150.86,48.9805,13.41,0.07457121551081282,1.1,11.801022856034544,0.00044771967
165.95,579.65,29967.0,3.3371e-05,-2.4725,-0.53821,74.498,17.748,37.716,765.67,-0.039963,116.96,0.093767,supercritical,Ar,C7440371,argon,150.86,48.9805,13.41,0.07457121551081282,1.1,11.834301405661437,0.0004475051100000001
165.95,581.28,29981.0,3.3354e-05,-2.4746,-0.53575,74.48,17.753,37.699,766.43,-0.040052,117.13,0.093877,supercritical,Ar,C7440371,argon,150.86,48.9805,13.41,0.07457121551081282,1.1,11.86757995528833,0.00044727714000000003
165.95,582.91,29996.0,3.3338e-05,-2.4766,-0.53329,74.463,17.758,37.683,767.19,-0.040141,117.3,0.093986,supercritical,Ar,C7440371,argon,150.86,48.9805,13.41,0.07457121551081282,1.1,11.90085850491522,0.00044706258000000004
165.95,584.54,30011.0,3.3321e-05,-2.4786,-0.53082,74.445,17.763,37.667,767.95,-0.040229,117.47,0.094095,supercritical,Ar,C7440371,argon,150.86,48.9805,13.41,0.07457121551081282,1.1,11.934137054542113,0.00044683461000000007
165.95,586.17,30025.0,3.3305e-05,-2.4806,-0.52835,74.427,17.768,37.65,768.7,-0.040316,117.64,0.094204,supercritical,Ar,C7440371,argon,150.86,48.9805,13.41,0.07457121551081282,1.1,11.967415604169005,0.0004466200500000001
165.95,587.8,30040.0,3.3289e-05,-2.4826,-0.52587,74.409,17.772,37.634,769.46,-0.040404,117.81,0.094313,supercritical,Ar,C7440371,argon,150.86,48.9805,13.41,0.07457121551081282,1.1,12.000694153795898,0.00044640549
165.95,589.43,30055.0,3.3273e-05,-2.4846,-0.52339,74.391,17.777,37.618,770.21,-0.04049,117.97,0.094421,supercritical,Ar,C7440371,argon,150.86,48.9805,13.41,0.07457121551081282,1.1,12.03397270342279,0.00044619093000000003
165.95,591.06,30069.0,3.3257e-05,-2.4866,-0.52091,74.374,17.782,37.602,770.96,-0.040576,118.14,0.09453,supercritical,Ar,C7440371,argon,150.86,48.9805,13.41,0.07457121551081282,1.1,12.067251253049681,0.00044597637