Temperature (K),Pressure (bar),Density (mol/m3),Volume (m3/mol),Internal Energy (kJ/mol),Enthalpy (kJ/mol),Entropy (J/mol*K),Cv (J/mol*K),Cp (J/mol*K),Sound Spd. (m/s),Joule-Thomson (K/bar),Viscosity (uPa*s),Therm. Cond. (W/m*K),Phase,substance,substance_id,substance_name,Tc,Pc,rhoc,Vmc,Tr,Pr,Vmr
196.12,597.58,27247.0,3.6701e-05,-1.5815,0.61174,80.521,16.703,36.849,698.53,-0.032998,91.098,0.07866,supercritical,Ar,C7440371,argon,150.86,48.9805,13.41,0.07457121551081282,1.3,12.200365451557253,0.00049216041
196.12,599.21,27265.0,3.6677e-05,-1.584,0.61372,80.5,16.708,36.831,699.36,-0.033135,91.243,0.078768,supercritical,Ar,C7440371,argon,150.86,48.9805,13.41,0.07457121551081282,1.3,12.233644001184146,0.0004918385700000001
196.12,600.84,27284.0,3.6652e-05,-1.5865,0.61572,80.48,16.712,36.812,700.18,-0.03327,91.388,0.078875,supercritical,Ar,C7440371,argon,150.86,48.9805,13.41,0.07457121551081282,1.3,12.266922550811039,0.00049150332
196.12,602.47,27302.0,3.6627e-05,-1.589,0.61772,80.46,16.717,36.794,701.0,-0.033405,91.533,0.078982,supercritical,Ar,C7440371,argon,150.86,48.9805,13.41,0.07457121551081282,1.3,12.30020110043793,0.0004911680700000001
196.12,604.1,27320.0,3.6603e-05,-1.5915,0.61972,80.44,16.722,36.776,701.81,-0.033539,91.678,0.079088,supercritical,Ar,C7440371,argon,150.86,48.9805,13.41,0.07457121551081282,1.3,12.333479650064822,0.00049084623
196.12,605.73,27338.0,3.6579e-05,-1.5939,0.62174,80.419,16.726,36.757,702.63,-0.033672,91.823,0.079195,supercritical,Ar,C7440371,argon,150.86,48.9805,13.41,0.07457121551081282,1.3,12.366758199691715,0.0004905243900000001
196.12,607.36,27357.0,3.6554e-05,-1.5964,0.62376,80.399,16.731,36.739,703.44,-0.033804,91.967,0.079301,supercritical,Ar,C7440371,argon,150.86,48.9805,13.41,0.07457121551081282,1.3,12.400036749318607,0.0004901891400000001
196.12,608.99,27375.0,3.653e-05,-1.5989,0.62579,80.379,16.735,36.722,704.26,-0.033935,92.111,0.079408,supercritical,Ar,C7440371,argon,150.86,48.9805,13.41,0.07457121551081282,1.3,12.4333152989455,0.0004898673
196.12,610.62,27393.0,3.6506e-05,-1.6013,0.62782,80.359,16.74,36.704,705.07,-0.034066,92.255,0.079514,supercritical,Ar,C7440371,argon,150.86,48.9805,13.41,0.07457121551081282,1.3,12.46659384857239,0.0004895454600000001
196.12,612.25,27411.0,3.6482e-05,-1.6038,0.62986,80.339,16.744,36.686,705.87,-0.034196,92.399,0.07962,supercritical,Ar,C7440371,argon,150.86,48.9805,13.41,0.07457121551081282,1.3,12.499872398199283,0.00048922362
196.12,613.88,27429.0,3.6458e-05,-1.6062,0.63191,80.32,16.748,36.669,706.68,-0.034324,92.543,0.079726,supercritical,Ar,C7440371,argon,150.86,48.9805,13.41,0.07457121551081282,1.3,12.533150947826176,0.0004889017800000001
196.12,615.51,27446.0,3.6435e-05,-1.6086,0.63396,80.3,16.753,36.651,707.49,-0.034453,92.686,0.079831,supercritical,Ar,C7440371,argon,150.86,48.9805,13.41,0.07457121551081282,1.3,12.566429497453068,0.0004885933500000001
196.12,617.14,27464.0,3.6411e-05,-1.611,0.63603,80.28,16.757,36.634,708.29,-0.03458,92.83,0.079937,supercritical,Ar,C7440371,argon,150.86,48.9805,13.41,0.07457121551081282,1.3,12.599708047079961,0.00048827151000000005
196.12,618.77,27482.0,3.6387e-05,-1.6135,0.63809,80.26,16.762,36.617,709.09,-0.034706,92.973,0.080042,supercritical,Ar,C7440371,argon,150.86,48.9805,13.41,0.07457121551081282,1.3,12.632986596706852,0.0004879496700000001
196.12,620.4,27500.0,3.6364e-05,-1.6159,0.64017,80.241,16.766,36.599,709.89,-0.034832,93.116,0.080148,supercritical,Ar,C7440371,argon,150.86,48.9805,13.41,0.07457121551081282,1.3,12.666265146333744,0.00048764124000000005
196.12,622.03,27517.0,3.6341e-05,-1.6183,0.64225,80.221,16.771,36.582,710.69,-0.034957,93.259,0.080253,supercritical,Ar,C7440371,argon,150.86,48.9805,13.41,0.07457121551081282,1.3,12.699543695960637,0.0004873328100000001
196.12,623.66,27535.0,3.6318e-05,-1.6206,0.64434,80.201,16.775,36.565,711.48,-0.035081,93.401,0.080358,supercritical,Ar,C7440371,argon,150.86,48.9805,13.41,0.07457121551081282,1.3,12.73282224558753,0.00048702438000000007
196.12,625.29,27552.0,3.6294e-05,-1.623,0.64643,80.182,16.78,36.549,712.28,-0.035204,93.544,0.080463,supercritical,Ar,C7440371,argon,150.86,48.9805,13.41,0.07457121551081282,1.3,12.766100795214422,0.00048670254000000005
196.12,626.92,27570.0,3.6271e-05,-1.6254,0.64853,80.163,16.784,36.532,713.07,-0.035327,93.686,0.080568,supercritical,Ar,C7440371,argon,150.86,48.9805,13.41,0.07457121551081282,1.3,12.799379344841313,0.00048639411
196.12,628.55,27587.0,3.6248e-05,-1.6278,0.65064,80.143,16.789,36.515,713.86,-0.035448,93.828,0.080672,supercritical,Ar,C7440371,argon,150.86,48.9805,13.41,0.07457121551081282,1.3,12.832657894468205,0.0004860856800000001
196.12,630.18,27605.0,3.6226e-05,-1.6301,0.65275,80.124,16.793,36.499,714.65,-0.03557,93.97,0.080777,supercritical,Ar,C7440371,argon,150.86,48.9805,13.41,0.07457121551081282,1.3,12.865936444095098,0.00048579066000000007
196.12,631.81,27622.0,3.6203e-05,-1.6325,0.65487,80.104,16.798,36.482,715.44,-0.03569,94.112,0.080881,supercritical,Ar,C7440371,argon,150.86,48.9805,13.41,0.07457121551081282,1.3,12.89921499372199,0.00048548223000000003
196.12,633.44,27639.0,3.618e-05,-1.6348,0.657,80.085,16.802,36.466,716.22,-0.035809,94.253,0.080986,supercritical,Ar,C7440371,argon,150.86,48.9805,13.41,0.07457121551081282,1.3,12.932493543348885,0.0004851738000000001
196.12,635.07,27657.0,3.6158e-05,-1.6371,0.65913,80.066,16.807,36.449,717.01,-0.035928,94.395,0.08109,supercritical,Ar,C7440371,argon,150.86,48.9805,13.41,0.07457121551081282,1.3,12.965772092975778,0.0004848787800000001
196.12,636.7,27674.0,3.6135e-05,-1.6395,0.66127,80.047,16.811,36.433,717.79,-0.036046,94.536,0.081194,supercritical,Ar,C7440371,argon,150.86,48.9805,13.41,0.07457121551081282,1.3,12.99905064260267,0.00048457035000000004
196.12,638.33,27691.0,3.6113e-05,-1.6418,0.66341,80.028,16.815,36.417,718.57,-0.036164,94.677,0.081299,supercritical,Ar,C7440371,argon,150.86,48.9805,13.41,0.07457121551081282,1.3,13.032329192229561,0.00048427533000000003
196.12,639.96,27708.0,3.6091e-05,-1.6441,0.66556,80.009,16.82,36.401,719.35,-0.03628,94.818,0.081403,supercritical,Ar,C7440371,argon,150.86,48.9805,13.41,0.07457121551081282,1.3,13.065607741856454,0.00048398031
196.12,641.59,27725.0,3.6068e-05,-1.6464,0.66772,79.99,16.824,36.385,720.13,-0.036396,94.958,0.081508,supercritical,Ar,C7440371,argon,150.86,48.9805,13.41,0.07457121551081282,1.3,13.098886291483346,0.0004836718800000001
196.12,643.22,27742.0,3.6046e-05,-1.6487,0.66988,79.971,16.829,36.37,720.9,-0.036512,95.099,0.081612,supercritical,Ar,C7440371,argon,150.86,48.9805,13.41,0.07457121551081282,1.3,13.132164841110239,0.0004833768600000001
196.12,644.85,27759.0,3.6024e-05,-1.651,0.67204,79.952,16.833,36.354,721.68,-0.036626,95.239,0.081716,supercritical,Ar,C7440371,argon,150.86,48.9805,13.41,0.07457121551081282,1.3,13.165443390737131,0.00048308184000000006
196.12,646.48,27776.0,3.6002e-05,-1.6533,0.67422,79.933,16.838,36.338,722.45,-0.03674,95.38,0.08182,supercritical,Ar,C7440371,argon,150.86,48.9805,13.41,0.07457121551081282,1.3,13.198721940364022,0.00048278682000000005
196.12,648.11,27793.0,3.5981e-05,-1.6555,0.6764,79.914,16.842,36.323,723.22,-0.036854,95.52,0.081924,supercritical,Ar,C7440371,argon,150.86,48.9805,13.41,0.07457121551081282,1.3,13.232000489990915,0.00048250521000000007
196.12,649.74,27810.0,3.5959e-05,-1.6578,0.67858,79.896,16.846,36.307,723.99,-0.036966,95.66,0.082028,supercritical,Ar,C7440371,argon,150.86,48.9805,13.41,0.07457121551081282,1.3,13.265279039617807,0.00048221019000000006
196.12,651.37,27826.0,3.5937e-05,-1.6601,0.68077,79.877,16.851,36.292,724.76,-0.037078,95.799,0.082131,supercritical,Ar,C7440371,argon,150.86,48.9805,13.41,0.07457121551081282,1.3,13.2985575892447,0.00048191517000000005
196.12,653.0,27843.0,3.5916e-05,-1.6623,0.68297,79.858,16.855,36.277,725.52,-0.037189,95.939,0.082235,supercritical,Ar,C7440371,argon,150.86,48.9805,13.41,0.07457121551081282,1.3,13.331836138871592,0.00048163356000000007
196.12,654.63,27860.0,3.5894e-05,-1.6646,0.68517,79.84,16.86,36.261,726.29,-0.0373,96.078,0.082338,supercritical,Ar,C7440371,argon,150.86,48.9805,13.41,0.07457121551081282,1.3,13.365114688498485,0.00048133854000000006
196.12,656.26,27876.0,3.5873e-05,-1.6668,0.68738,79.821,16.864,36.246,727.05,-0.03741,96.218,0.082441,supercritical,Ar,C7440371,argon,150.86,48.9805,13.41,0.07457121551081282,1.3,13.398393238125376,0.0004810569300000001
196.12,657.89,27893.0,3.5851e-05,-1.669,0.68959,79.802,16.869,36.231,727.81,-0.037519,96.357,0.082544,supercritical,Ar,C7440371,argon,150.86,48.9805,13.41,0.07457121551081282,1.3,13.431671787752268,0.00048076191000000006
196.12,659.52,27909.0,3.583e-05,-1.6713,0.69181,79.784,16.873,36.216,728.57,-0.037628,96.496,0.082647,supercritical,Ar,C7440371,argon,150.86,48.9805,13.41,0.07457121551081282,1.3,13.464950337379161,0.0004804803000000001
196.12,661.15,27926.0,3.5809e-05,-1.6735,0.69403,79.766,16.877,36.201,729.33,-0.037736,96.635,0.08275,supercritical,Ar,C7440371,argon,150.86,48.9805,13.41,0.07457121551081282,1.3,13.498228887006054,0.0004801986900000001
196.12,662.78,27942.0,3.5788e-05,-1.6757,0.69626,79.747,16.882,36.187,730.09,-0.037843,96.773,0.082853,supercritical,Ar,C7440371,argon,150.86,48.9805,13.41,0.07457121551081282,1.3,13.531507436632946,0.00047991708
196.12,664.41,27959.0,3.5767e-05,-1.6779,0.6985,79.729,16.886,36.172,730.84,-0.03795,96.912,0.082956,supercritical,Ar,C7440371,argon,150.86,48.9805,13.41,0.07457121551081282,1.3,13.564785986259837,0.00047963547000000003
196.12,666.04,27975.0,3.5746e-05,-1.6801,0.70074,79.711,16.891,36.157,731.6,-0.038056,97.05,0.083058,supercritical,Ar,C7440371,argon,150.86,48.9805,13.41,0.07457121551081282,1.3,13.59806453588673,0.00047935386000000005
196.12,667.67,27991.0,3.5725e-05,-1.6823,0.70298,79.692,16.895,36.143,732.35,-0.038161,97.188,0.08316,supercritical,Ar,C7440371,argon,150.86,48.9805,13.41,0.07457121551081282,1.3,13.631343085513622,0.00047907225000000007
196.12,669.3,28008.0,3.5705e-05,-1.6845,0.70523,79.674,16.899,36.128,733.1,-0.038266,97.326,0.083263,supercritical,Ar,C7440371,argon,150.86,48.9805,13.41,0.07457121551081282,1.3,13.664621635140515,0.00047880405
196.12,670.93,28024.0,3.5684e-05,-1.6867,0.70749,79.656,16.904,36.114,733.85,-0.03837,97.464,0.083365,supercritical,Ar,C7440371,argon,150.86,48.9805,13.41,0.07457121551081282,1.3,13.697900184767407,0.00047852244000000003
196.12,672.56,28040.0,3.5663e-05,-1.6888,0.70975,79.638,16.908,36.1,734.59,-0.038474,97.602,0.083467,supercritical,Ar,C7440371,argon,150.86,48.9805,13.41,0.07457121551081282,1.3,13.731178734394298,0.00047824083000000005
196.12,674.19,28056.0,3.5643e-05,-1.691,0.71202,79.62,16.912,36.085,735.34,-0.038577,97.74,0.083569,supercritical,Ar,C7440371,argon,150.86,48.9805,13.41,0.07457121551081282,1.3,13.764457284021194,0.00047797263
196.12,675.82,28072.0,3.5622e-05,-1.6931,0.71429,79.602,16.917,36.071,736.09,-0.038679,97.877,0.08367,supercritical,Ar,C7440371,argon,150.86,48.9805,13.41,0.07457121551081282,1.3,13.797735833648085,0.00047769102
196.12,677.45,28088.0,3.5602e-05,-1.6953,0.71657,79.584,16.921,36.057,736.83,-0.038781,98.015,0.083772,supercritical,Ar,C7440371,argon,150.86,48.9805,13.41,0.07457121551081282,1.3,13.831014383274978,0.00047742282000000005
196.12,679.08,28104.0,3.5582e-05,-1.6974,0.71885,79.566,16.925,36.043,737.57,-0.038883,98.152,0.083873,supercritical,Ar,C7440371,argon,150.86,48.9805,13.41,0.07457121551081282,1.3,13.86429293290187,0.00047715462000000005
196.12,680.71,28120.0,3.5562e-05,-1.6996,0.72113,79.548,16.93,36.029,738.31,-0.038983,98.289,0.083975,supercritical,Ar,C7440371,argon,150.86,48.9805,13.41,0.07457121551081282,1.3,13.897571482528763,0.0004768864200000001
196.12,682.34,28136.0,3.5542e-05,-1.7017,0.72343,79.53,16.934,36.015,739.05,-0.039084,98.426,0.084076,supercritical,Ar,C7440371,argon,150.86,48.9805,13.41,0.07457121551081282,1.3,13.930850032155655,0.00047661822000000004
196.12,683.97,28152.0,3.5522e-05,-1.7038,0.72572,79.512,16.939,36.002,739.79,-0.039183,98.563,0.084177,supercritical,Ar,C7440371,argon,150.86,48.9805,13.41,0.07457121551081282,1.3,13.964128581782546,0.0004763500200000001
196.12,685.6,28168.0,3.5502e-05,-1.706,0.72803,79.494,16.943,35.988,740.52,-0.039282,98.699,0.084278,supercritical,Ar,C7440371,argon,150.86,48.9805,13.41,0.07457121551081282,1.3,13.997407131409439,0.00047608182000000003
196.12,687.23,28184.0,3.5482e-05,-1.7081,0.73033,79.477,16.947,35.974,741.26,-0.039381,98.836,0.084379,supercritical,Ar,C7440371,argon,150.86,48.9805,13.41,0.07457121551081282,1.3,14.030685681036331,0.00047581362
196.12,688.86,28199.0,3.5462e-05,-1.7102,0.73264,79.459,16.952,35.961,741.99,-0.039479,98.972,0.08448,supercritical,Ar,C7440371,argon,150.86,48.9805,13.41,0.07457121551081282,1.3,14.063964230663224,0.00047554542000000007
196.12,690.49,28215.0,3.5442e-05,-1.7123,0.73496,79.441,16.956,35.947,742.72,-0.039576,99.109,0.08458,supercritical,Ar,C7440371,argon,150.86,48.9805,13.41,0.07457121551081282,1.3,14.097242780290117,0.00047527722
196.12,692.12,28231.0,3.5422e-05,-1.7144,0.73728,79.424,16.96,35.934,743.45,-0.039673,99.245,0.084681,supercritical,Ar,C7440371,argon,150.86,48.9805,13.41,0.07457121551081282,1.3,14.130521329917007,0.00047500902000000006
196.12,693.75,28246.0,3.5403e-05,-1.7165,0.73961,79.406,16.965,35.921,744.18,-0.039769,99.381,0.084781,supercritical,Ar,C7440371,argon,150.86,48.9805,13.41,0.07457121551081282,1.3,14.1637998795439,0.00047475423000000003
196.12,695.38,28262.0,3.5383e-05,-1.7186,0.74194,79.389,16.969,35.907,744.91,-0.039865,99.517,0.084882,supercritical,Ar,C7440371,argon,150.86,48.9805,13.41,0.07457121551081282,1.3,14.197078429170793,0.0004744860300000001
196.12,697.01,28277.0,3.5364e-05,-1.7206,0.74427,79.371,16.973,35.894,745.63,-0.03996,99.652,0.084982,supercritical,Ar,C7440371,argon,150.86,48.9805,13.41,0.07457121551081282,1.3,14.230356978797685,0.00047423124000000005
196.12,698.64,28293.0,3.5345e-05,-1.7227,0.74661,79.354,16.978,35.881,746.36,-0.040055,99.788,0.085082,supercritical,Ar,C7440371,argon,150.86,48.9805,13.41,0.07457121551081282,1.3,14.263635528424578,0.0004739764500000001
196.12,700.27,28308.0,3.5325e-05,-1.7248,0.74896,79.336,16.982,35.868,747.08,-0.040149,99.924,0.085182,supercritical,Ar,C7440371,argon,150.86,48.9805,13.41,0.07457121551081282,1.3,14.296914078051469,0.00047370825
196.12,701.9,28324.0,3.5306e-05,-1.7268,0.75131,79.319,16.986,35.855,747.8,-0.040242,100.06,0.085282,supercritical,Ar,C7440371,argon,150.86,48.9805,13.41,0.07457121551081282,1.3,14.330192627678361,0.00047345346
196.12,703.53,28339.0,3.5287e-05,-1.7289,0.75366,79.302,16.991,35.842,748.52,-0.040335,100.19,0.085381,supercritical,Ar,C7440371,argon,150.86,48.9805,13.41,0.07457121551081282,1.3,14.363471177305254,0.00047319867000000007
196.12,705.16,28354.0,3.5268e-05,-1.7309,0.75602,79.284,16.995,35.829,749.24,-0.040428,100.33,0.085481,supercritical,Ar,C7440371,argon,150.86,48.9805,13.41,0.07457121551081282,1.3,14.396749726932146,0.0004729438800000001
196.12,706.79,28370.0,3.5249e-05,-1.733,0.75839,79.267,16.999,35.816,749.96,-0.04052,100.46,0.085581,supercritical,Ar,C7440371,argon,150.86,48.9805,13.41,0.07457121551081282,1.3,14.430028276559039,0.00047268909000000006
196.12,708.42,28385.0,3.523e-05,-1.735,0.76075,79.25,17.003,35.804,750.68,-0.040612,100.6,0.08568,supercritical,Ar,C7440371,argon,150.86,48.9805,13.41,0.07457121551081282,1.3,14.46330682618593,0.00047243430000000003
196.12,710.05,28400.0,3.5211e-05,-1.737,0.76313,79.233,17.008,35.791,751.39,-0.040703,100.73,0.085779,supercritical,Ar,C7440371,argon,150.86,48.9805,13.41,0.07457121551081282,1.3,14.496585375812822,0.00047217951000000006
196.12,711.68,28415.0,3.5192e-05,-1.739,0.7655,79.215,17.012,35.778,752.1,-0.040793,100.87,0.085878,supercritical,Ar,C7440371,argon,150.86,48.9805,13.41,0.07457121551081282,1.3,14.529863925439715,0.00047192472
196.12,713.31,28431.0,3.5173e-05,-1.7411,0.76788,79.198,17.016,35.766,752.82,-0.040883,101.0,0.085977,supercritical,Ar,C7440371,argon,150.86,48.9805,13.41,0.07457121551081282,1.3,14.563142475066607,0.00047166993
196.12,714.94,28446.0,3.5155e-05,-1.7431,0.77027,79.181,17.021,35.754,753.53,-0.040973,101.14,0.086076,supercritical,Ar,C7440371,argon,150.86,48.9805,13.41,0.07457121551081282,1.3,14.596421024693502,0.00047142855
196.12,716.57,28461.0,3.5136e-05,-1.7451,0.77266,79.164,17.025,35.741,754.24,-0.041062,101.27,0.086175,supercritical,Ar,C7440371,argon,150.86,48.9805,13.41,0.07457121551081282,1.3,14.629699574320394,0.00047117376
196.12,718.2,28476.0,3.5117e-05,-1.7471,0.77505,79.147,17.029,35.729,754.94,-0.041151,101.41,0.086274,supercritical,Ar,C7440371,argon,150.86,48.9805,13.41,0.07457121551081282,1.3,14.662978123947287,0.0004709189700000001
196.12,719.83,28491.0,3.5099e-05,-1.7491,0.77745,79.13,17.033,35.717,755.65,-0.041239,101.54,0.086372,supercritical,Ar,C7440371,argon,150.86,48.9805,13.41,0.07457121551081282,1.3,14.696256673574178,0.00047067759
196.12,721.46,28506.0,3.5081e-05,-1.7511,0.77985,79.113,17.038,35.704,756.36,-0.041326,101.67,0.086471,supercritical,Ar,C7440371,argon,150.86,48.9805,13.41,0.07457121551081282,1.3,14.72953522320107,0.00047043621000000005
196.12,723.09,28521.0,3.5062e-05,-1.753,0.78226,79.097,17.042,35.692,757.06,-0.041413,101.81,0.086569,supercritical,Ar,C7440371,argon,150.86,48.9805,13.41,0.07457121551081282,1.3,14.762813772827963,0.00047018142
196.12,724.72,28536.0,3.5044e-05,-1.755,0.78467,79.08,17.046,35.68,757.76,-0.0415,101.94,0.086668,supercritical,Ar,C7440371,argon,150.86,48.9805,13.41,0.07457121551081282,1.3,14.796092322454856,0.00046994004
196.12,726.35,28551.0,3.5026e-05,-1.757,0.78709,79.063,17.051,35.668,758.47,-0.041586,102.07,0.086766,supercritical,Ar,C7440371,argon,150.86,48.9805,13.41,0.07457121551081282,1.3,14.829370872081748,0.00046969866
196.12,727.98,28565.0,3.5007e-05,-1.759,0.78951,79.046,17.055,35.656,759.17,-0.041672,102.21,0.086864,supercritical,Ar,C7440371,argon,150.86,48.9805,13.41,0.07457121551081282,1.3,14.862649421708639,0.00046944387000000005
196.12,729.61,28580.0,3.4989e-05,-1.7609,0.79193,79.029,17.059,35.644,759.87,-0.041758,102.34,0.086962,supercritical,Ar,C7440371,argon,150.86,48.9805,13.41,0.07457121551081282,1.3,14.895927971335531,0.00046920249000000005
196.12,731.24,28595.0,3.4971e-05,-1.7629,0.79436,79.013,17.063,35.632,760.56,-0.041842,102.47,0.087059,supercritical,Ar,C7440371,argon,150.86,48.9805,13.41,0.07457121551081282,1.3,14.929206520962424,0.00046896111000000005
196.12,732.87,28610.0,3.4953e-05,-1.7648,0.79679,78.996,17.068,35.621,761.26,-0.041927,102.61,0.087157,supercritical,Ar,C7440371,argon,150.86,48.9805,13.41,0.07457121551081282,1.3,14.962485070589317,0.0004687197300000001
196.12,734.5,28624.0,3.4935e-05,-1.7668,0.79923,78.979,17.072,35.609,761.96,-0.042011,102.74,0.087255,supercritical,Ar,C7440371,argon,150.86,48.9805,13.41,0.07457121551081282,1.3,14.99576362021621,0.00046847835
196.12,736.13,28639.0,3.4918e-05,-1.7687,0.80167,78.963,17.076,35.597,762.65,-0.042094,102.87,0.087352,supercritical,Ar,C7440371,argon,150.86,48.9805,13.41,0.07457121551081282,1.3,15.029042169843102,0.00046825038
196.12,737.76,28653.0,3.49e-05,-1.7706,0.80411,78.946,17.08,35.586,763.34,-0.042177,103.01,0.08745,supercritical,Ar,C7440371,argon,150.86,48.9805,13.41,0.07457121551081282,1.3,15.062320719469993,0.0004680090000000001
196.12,739.39,28668.0,3.4882e-05,-1.7726,0.80656,78.93,17.085,35.574,764.03,-0.04226,103.14,0.087547,supercritical,Ar,C7440371,argon,150.86,48.9805,13.41,0.07457121551081282,1.3,15.095599269096885,0.0004677676200000001
196.12,741.02,28683.0,3.4864e-05,-1.7745,0.80902,78.913,17.089,35.563,764.73,-0.042342,103.27,0.087644,supercritical,Ar,C7440371,argon,150.86,48.9805,13.41,0.07457121551081282,1.3,15.128877818723778,0.00046752624
196.12,742.65,28697.0,3.4847e-05,-1.7764,0.81147,78.897,17.093,35.551,765.41,-0.042424,103.4,0.087741,supercritical,Ar,C7440371,argon,150.86,48.9805,13.41,0.07457121551081282,1.3,15.16215636835067,0.00046729827000000006