Temperature (K),Pressure (bar),Density (mol/m3),Volume (m3/mol),Internal Energy (kJ/mol),Enthalpy (kJ/mol),Entropy (J/mol*K),Cv (J/mol*K),Cp (J/mol*K),Sound Spd. (m/s),Joule-Thomson (K/bar),Viscosity (uPa*s),Therm. Cond. (W/m*K),Phase,substance,substance_id,substance_name,Tc,Pc,rhoc,Vmc,Tr,Pr,Vmr
170.04,762.67,31706.0,3.1539e-05,-1.4286,0.97685,117.98,26.982,46.217,864.72,-0.035221,112.64,0.12865,supercritical,O2,C7782447,oxygen,154.58,50.43,13.6,0.07352941176470588,1.1,15.123339282173308,0.0004289304
170.04,764.03,31716.0,3.153e-05,-1.4299,0.97907,117.97,26.986,46.209,865.3,-0.035255,112.76,0.12875,supercritical,O2,C7782447,oxygen,154.58,50.43,13.6,0.07352941176470588,1.1,15.150307356732103,0.000428808
170.04,765.4,31726.0,3.152e-05,-1.4312,0.9813,117.95,26.989,46.2,865.88,-0.035288,112.87,0.12884,supercritical,O2,C7782447,oxygen,154.58,50.43,13.6,0.07352941176470588,1.1,15.177473725956771,0.000428672
170.04,766.76,31736.0,3.151e-05,-1.4326,0.98352,117.94,26.993,46.192,866.46,-0.035321,112.99,0.12894,supercritical,O2,C7782447,oxygen,154.58,50.43,13.6,0.07352941176470588,1.1,15.204441800515566,0.00042853600000000003
170.04,768.13,31745.0,3.1501e-05,-1.4339,0.98575,117.93,26.996,46.183,867.04,-0.035354,113.1,0.12904,supercritical,O2,C7782447,oxygen,154.58,50.43,13.6,0.07352941176470588,1.1,15.231608169740234,0.00042841360000000003
170.04,769.5,31755.0,3.1491e-05,-1.4352,0.98798,117.92,26.999,46.175,867.62,-0.035386,113.21,0.12913,supercritical,O2,C7782447,oxygen,154.58,50.43,13.6,0.07352941176470588,1.1,15.258774538964902,0.0004282776
170.04,770.86,31765.0,3.1481e-05,-1.4366,0.99021,117.91,27.003,46.166,868.2,-0.035419,113.33,0.12923,supercritical,O2,C7782447,oxygen,154.58,50.43,13.6,0.07352941176470588,1.1,15.285742613523697,0.0004281416
170.04,772.23,31775.0,3.1472e-05,-1.4379,0.99244,117.89,27.006,46.158,868.78,-0.035451,113.44,0.12932,supercritical,O2,C7782447,oxygen,154.58,50.43,13.6,0.07352941176470588,1.1,15.312908982748365,0.0004280192
170.04,773.59,31784.0,3.1462e-05,-1.4392,0.99468,117.88,27.01,46.15,869.36,-0.035484,113.56,0.12942,supercritical,O2,C7782447,oxygen,154.58,50.43,13.6,0.07352941176470588,1.1,15.33987705730716,0.00042788319999999996
170.04,774.96,31794.0,3.1453e-05,-1.4405,0.99691,117.87,27.013,46.141,869.93,-0.035516,113.67,0.12951,supercritical,O2,C7782447,oxygen,154.58,50.43,13.6,0.07352941176470588,1.1,15.367043426531827,0.00042776079999999996
170.04,776.32,31803.0,3.1443e-05,-1.4418,0.99915,117.86,27.016,46.133,870.51,-0.035548,113.79,0.12961,supercritical,O2,C7782447,oxygen,154.58,50.43,13.6,0.07352941176470588,1.1,15.394011501090622,0.00042762479999999993
170.04,777.68,31813.0,3.1434e-05,-1.4432,1.0014,117.85,27.02,46.125,871.08,-0.03558,113.9,0.1297,supercritical,O2,C7782447,oxygen,154.58,50.43,13.6,0.07352941176470588,1.1,15.420979575649413,0.00042750239999999993
170.04,779.05,31823.0,3.1424e-05,-1.4445,1.0036,117.83,27.023,46.117,871.66,-0.035612,114.02,0.1298,supercritical,O2,C7782447,oxygen,154.58,50.43,13.6,0.07352941176470588,1.1,15.448145944874081,0.0004273664
170.04,780.41,31832.0,3.1415e-05,-1.4458,1.0059,117.82,27.026,46.108,872.23,-0.035643,114.13,0.1299,supercritical,O2,C7782447,oxygen,154.58,50.43,13.6,0.07352941176470588,1.1,15.475114019432876,0.000427244
170.04,781.78,31842.0,3.1405e-05,-1.4471,1.0081,117.81,27.03,46.1,872.8,-0.035675,114.25,0.12999,supercritical,O2,C7782447,oxygen,154.58,50.43,13.6,0.07352941176470588,1.1,15.502280388657544,0.000427108
170.04,783.14,31851.0,3.1396e-05,-1.4484,1.0104,117.8,27.033,46.092,873.38,-0.035706,114.36,0.13009,supercritical,O2,C7782447,oxygen,154.58,50.43,13.6,0.07352941176470588,1.1,15.529248463216339,0.0004269856
170.04,784.51,31861.0,3.1387e-05,-1.4497,1.0126,117.79,27.036,46.084,873.95,-0.035738,114.48,0.13018,supercritical,O2,C7782447,oxygen,154.58,50.43,13.6,0.07352941176470588,1.1,15.556414832441007,0.00042686320000000005
170.04,785.88,31870.0,3.1377e-05,-1.451,1.0149,117.77,27.04,46.076,874.52,-0.035769,114.59,0.13027,supercritical,O2,C7782447,oxygen,154.58,50.43,13.6,0.07352941176470588,1.1,15.583581201665675,0.0004267272
170.04,787.24,31880.0,3.1368e-05,-1.4523,1.0171,117.76,27.043,46.068,875.09,-0.0358,114.7,0.13037,supercritical,O2,C7782447,oxygen,154.58,50.43,13.6,0.07352941176470588,1.1,15.61054927622447,0.0004266048
170.04,788.61,31889.0,3.1358e-05,-1.4536,1.0194,117.75,27.046,46.06,875.66,-0.035831,114.82,0.13046,supercritical,O2,C7782447,oxygen,154.58,50.43,13.6,0.07352941176470588,1.1,15.637715645449138,0.0004264688
170.04,789.97,31899.0,3.1349e-05,-1.4549,1.0216,117.74,27.05,46.052,876.23,-0.035862,114.93,0.13056,supercritical,O2,C7782447,oxygen,154.58,50.43,13.6,0.07352941176470588,1.1,15.664683720007933,0.0004263464
170.04,791.34,31908.0,3.134e-05,-1.4562,1.0239,117.73,27.053,46.044,876.8,-0.035893,115.05,0.13065,supercritical,O2,C7782447,oxygen,154.58,50.43,13.6,0.07352941176470588,1.1,15.6918500892326,0.000426224
170.04,792.7,31918.0,3.1331e-05,-1.4575,1.0261,117.71,27.056,46.036,877.37,-0.035923,115.16,0.13075,supercritical,O2,C7782447,oxygen,154.58,50.43,13.6,0.07352941176470588,1.1,15.718818163791395,0.0004261016
170.04,794.07,31927.0,3.1321e-05,-1.4587,1.0284,117.7,27.06,46.028,877.93,-0.035954,115.27,0.13084,supercritical,O2,C7782447,oxygen,154.58,50.43,13.6,0.07352941176470588,1.1,15.745984533016063,0.0004259656
170.04,795.43,31936.0,3.1312e-05,-1.46,1.0306,117.69,27.063,46.02,878.5,-0.035984,115.39,0.13094,supercritical,O2,C7782447,oxygen,154.58,50.43,13.6,0.07352941176470588,1.1,15.772952607574855,0.0004258432
170.04,796.79,31946.0,3.1303e-05,-1.4613,1.0329,117.68,27.066,46.013,879.07,-0.036014,115.5,0.13103,supercritical,O2,C7782447,oxygen,154.58,50.43,13.6,0.07352941176470588,1.1,15.79992068213365,0.0004257208
170.04,798.16,31955.0,3.1294e-05,-1.4626,1.0352,117.67,27.069,46.005,879.63,-0.036045,115.62,0.13112,supercritical,O2,C7782447,oxygen,154.58,50.43,13.6,0.07352941176470588,1.1,15.827087051358317,0.00042559840000000004
170.04,799.52,31965.0,3.1285e-05,-1.4638,1.0374,117.65,27.073,45.997,880.2,-0.036075,115.73,0.13122,supercritical,O2,C7782447,oxygen,154.58,50.43,13.6,0.07352941176470588,1.1,15.854055125917112,0.00042547600000000004
170.04,800.89,31974.0,3.1275e-05,-1.4651,1.0397,117.64,27.076,45.989,880.76,-0.036104,115.84,0.13131,supercritical,O2,C7782447,oxygen,154.58,50.43,13.6,0.07352941176470588,1.1,15.88122149514178,0.00042534
170.04,802.25,31983.0,3.1266e-05,-1.4664,1.042,117.63,27.079,45.982,881.33,-0.036134,115.96,0.1314,supercritical,O2,C7782447,oxygen,154.58,50.43,13.6,0.07352941176470588,1.1,15.908189569700575,0.0004252176
170.04,803.62,31993.0,3.1257e-05,-1.4677,1.0442,117.62,27.083,45.974,881.89,-0.036164,116.07,0.1315,supercritical,O2,C7782447,oxygen,154.58,50.43,13.6,0.07352941176470588,1.1,15.935355938925243,0.0004250952
170.04,804.99,32002.0,3.1248e-05,-1.4689,1.0465,117.61,27.086,45.966,882.45,-0.036193,116.19,0.13159,supercritical,O2,C7782447,oxygen,154.58,50.43,13.6,0.07352941176470588,1.1,15.96252230814991,0.0004249728
170.04,806.35,32011.0,3.1239e-05,-1.4702,1.0488,117.6,27.089,45.959,883.02,-0.036223,116.3,0.13169,supercritical,O2,C7782447,oxygen,154.58,50.43,13.6,0.07352941176470588,1.1,15.989490382708706,0.0004248503999999999
170.04,807.72,32020.0,3.123e-05,-1.4714,1.051,117.58,27.092,45.951,883.58,-0.036252,116.41,0.13178,supercritical,O2,C7782447,oxygen,154.58,50.43,13.6,0.07352941176470588,1.1,16.016656751933375,0.000424728
170.04,809.08,32030.0,3.1221e-05,-1.4727,1.0533,117.57,27.096,45.943,884.14,-0.036281,116.53,0.13187,supercritical,O2,C7782447,oxygen,154.58,50.43,13.6,0.07352941176470588,1.1,16.043624826492167,0.0004246056
170.04,810.45,32039.0,3.1212e-05,-1.474,1.0556,117.56,27.099,45.936,884.7,-0.036311,116.64,0.13196,supercritical,O2,C7782447,oxygen,154.58,50.43,13.6,0.07352941176470588,1.1,16.070791195716836,0.0004244832
170.04,811.81,32048.0,3.1203e-05,-1.4752,1.0579,117.55,27.102,45.928,885.26,-0.03634,116.75,0.13206,supercritical,O2,C7782447,oxygen,154.58,50.43,13.6,0.07352941176470588,1.1,16.097759270275628,0.0004243608
170.04,813.17,32057.0,3.1194e-05,-1.4765,1.0602,117.54,27.105,45.921,885.82,-0.036368,116.87,0.13215,supercritical,O2,C7782447,oxygen,154.58,50.43,13.6,0.07352941176470588,1.1,16.124727344834422,0.0004242384
170.04,814.54,32067.0,3.1185e-05,-1.4777,1.0624,117.53,27.109,45.913,886.37,-0.036397,116.98,0.13224,supercritical,O2,C7782447,oxygen,154.58,50.43,13.6,0.07352941176470588,1.1,16.151893714059092,0.000424116
170.04,815.9,32076.0,3.1176e-05,-1.479,1.0647,117.51,27.112,45.906,886.93,-0.036426,117.09,0.13234,supercritical,O2,C7782447,oxygen,154.58,50.43,13.6,0.07352941176470588,1.1,16.178861788617887,0.0004239936
170.04,817.27,32085.0,3.1167e-05,-1.4802,1.067,117.5,27.115,45.898,887.49,-0.036454,117.21,0.13243,supercritical,O2,C7782447,oxygen,154.58,50.43,13.6,0.07352941176470588,1.1,16.206028157842553,0.0004238712
170.04,818.63,32094.0,3.1158e-05,-1.4814,1.0693,117.49,27.118,45.891,888.05,-0.036483,117.32,0.13252,supercritical,O2,C7782447,oxygen,154.58,50.43,13.6,0.07352941176470588,1.1,16.232996232401348,0.0004237488
170.04,820.0,32103.0,3.1149e-05,-1.4827,1.0716,117.48,27.121,45.884,888.6,-0.036511,117.43,0.13261,supercritical,O2,C7782447,oxygen,154.58,50.43,13.6,0.07352941176470588,1.1,16.260162601626018,0.0004236264