Temperature (K),Pressure (bar),Density (mol/m3),Volume (m3/mol),Internal Energy (kJ/mol),Enthalpy (kJ/mol),Entropy (J/mol*K),Cv (J/mol*K),Cp (J/mol*K),Sound Spd. (m/s),Joule-Thomson (K/bar),Viscosity (uPa*s),Therm. Cond. (W/m*K),Phase,substance,substance_id,substance_name,Tc,Pc,rhoc,Vmc,Tr,Pr,Vmr
517.11,674.58,13985.0,7.1506e-05,21.437,26.26,80.421,40.848,65.247,555.18,0.023987,55.48,0.075916,supercritical,CO2,C124389,carbon-dioxide,304.18,73.8,10.6,0.09433962264150944,1.7,9.140650406504067,0.0007579635999999999
517.11,677.04,14014.0,7.1359e-05,21.425,26.257,80.38,40.853,65.241,556.3,0.023626,55.618,0.076055,supercritical,CO2,C124389,carbon-dioxide,304.18,73.8,10.6,0.09433962264150944,1.7,9.173983739837398,0.0007564054
517.11,679.5,14042.0,7.1213e-05,21.414,26.253,80.338,40.858,65.235,557.42,0.023268,55.757,0.076195,supercritical,CO2,C124389,carbon-dioxide,304.18,73.8,10.6,0.09433962264150944,1.7,9.207317073170731,0.0007548577999999999
517.11,681.96,14071.0,7.1068e-05,21.403,26.249,80.297,40.863,65.228,558.54,0.022913,55.895,0.076333,supercritical,CO2,C124389,carbon-dioxide,304.18,73.8,10.6,0.09433962264150944,1.7,9.240650406504066,0.0007533208
517.11,684.42,14100.0,7.0924e-05,21.391,26.246,80.257,40.868,65.222,559.66,0.022561,56.033,0.076472,supercritical,CO2,C124389,carbon-dioxide,304.18,73.8,10.6,0.09433962264150944,1.7,9.273983739837398,0.0007517944
517.11,686.88,14128.0,7.0782e-05,21.38,26.242,80.216,40.873,65.215,560.78,0.022211,56.171,0.07661,supercritical,CO2,C124389,carbon-dioxide,304.18,73.8,10.6,0.09433962264150944,1.7,9.307317073170733,0.0007502892
517.11,689.33,14156.0,7.064e-05,21.369,26.238,80.176,40.878,65.209,561.9,0.021865,56.309,0.076748,supercritical,CO2,C124389,carbon-dioxide,304.18,73.8,10.6,0.09433962264150944,1.7,9.340514905149053,0.000748784
517.11,691.79,14184.0,7.05e-05,21.358,26.235,80.135,40.883,65.202,563.02,0.021521,56.446,0.076886,supercritical,CO2,C124389,carbon-dioxide,304.18,73.8,10.6,0.09433962264150944,1.7,9.373848238482385,0.0007473
517.11,694.25,14212.0,7.0361e-05,21.347,26.232,80.095,40.888,65.196,564.13,0.02118,56.584,0.077023,supercritical,CO2,C124389,carbon-dioxide,304.18,73.8,10.6,0.09433962264150944,1.7,9.407181571815718,0.0007458266
517.11,696.71,14240.0,7.0223e-05,21.336,26.228,80.055,40.893,65.189,565.24,0.020842,56.721,0.07716,supercritical,CO2,C124389,carbon-dioxide,304.18,73.8,10.6,0.09433962264150944,1.7,9.440514905149053,0.0007443637999999999
517.11,699.17,14268.0,7.0086e-05,21.325,26.225,80.016,40.897,65.182,566.36,0.020506,56.858,0.077297,supercritical,CO2,C124389,carbon-dioxide,304.18,73.8,10.6,0.09433962264150944,1.7,9.473848238482384,0.0007429116000000001
517.11,701.63,14296.0,6.995e-05,21.314,26.222,79.976,40.902,65.175,567.47,0.020173,56.995,0.077433,supercritical,CO2,C124389,carbon-dioxide,304.18,73.8,10.6,0.09433962264150944,1.7,9.50718157181572,0.00074147
517.11,704.08,14323.0,6.9815e-05,21.303,26.218,79.937,40.907,65.168,568.58,0.019843,57.132,0.07757,supercritical,CO2,C124389,carbon-dioxide,304.18,73.8,10.6,0.09433962264150944,1.7,9.54037940379404,0.0007400389999999998
517.11,706.54,14351.0,6.9682e-05,21.292,26.215,79.897,40.912,65.161,569.69,0.019515,57.269,0.077706,supercritical,CO2,C124389,carbon-dioxide,304.18,73.8,10.6,0.09433962264150944,1.7,9.573712737127371,0.0007386291999999999
517.11,709.0,14378.0,6.9549e-05,21.281,26.212,79.858,40.917,65.154,570.8,0.01919,57.405,0.077841,supercritical,CO2,C124389,carbon-dioxide,304.18,73.8,10.6,0.09433962264150944,1.7,9.607046070460704,0.0007372193999999999
517.11,711.46,14406.0,6.9418e-05,21.27,26.209,79.819,40.922,65.147,571.9,0.018867,57.542,0.077977,supercritical,CO2,C124389,carbon-dioxide,304.18,73.8,10.6,0.09433962264150944,1.7,9.64037940379404,0.0007358308
517.11,713.92,14433.0,6.9287e-05,21.26,26.206,79.781,40.926,65.14,573.01,0.018547,57.678,0.078112,supercritical,CO2,C124389,carbon-dioxide,304.18,73.8,10.6,0.09433962264150944,1.7,9.67371273712737,0.0007344421999999999
517.11,716.38,14460.0,6.9158e-05,21.249,26.203,79.742,40.931,65.133,574.11,0.01823,57.814,0.078247,supercritical,CO2,C124389,carbon-dioxide,304.18,73.8,10.6,0.09433962264150944,1.7,9.707046070460706,0.0007330748
517.11,718.83,14487.0,6.9029e-05,21.238,26.2,79.703,40.936,65.126,575.22,0.017915,57.95,0.078382,supercritical,CO2,C124389,carbon-dioxide,304.18,73.8,10.6,0.09433962264150944,1.7,9.740243902439026,0.0007317074
517.11,721.29,14513.0,6.8902e-05,21.228,26.197,79.665,40.941,65.118,576.32,0.017602,58.086,0.078516,supercritical,CO2,C124389,carbon-dioxide,304.18,73.8,10.6,0.09433962264150944,1.7,9.773577235772358,0.0007303612
517.11,723.75,14540.0,6.8775e-05,21.217,26.195,79.627,40.946,65.111,577.42,0.017292,58.222,0.07865,supercritical,CO2,C124389,carbon-dioxide,304.18,73.8,10.6,0.09433962264150944,1.7,9.80691056910569,0.000729015
517.11,726.21,14567.0,6.865e-05,21.206,26.192,79.589,40.951,65.104,578.52,0.016984,58.358,0.078784,supercritical,CO2,C124389,carbon-dioxide,304.18,73.8,10.6,0.09433962264150944,1.7,9.840243902439026,0.0007276899999999999
517.11,728.67,14593.0,6.8525e-05,21.196,26.189,79.551,40.955,65.096,579.62,0.016678,58.493,0.078918,supercritical,CO2,C124389,carbon-dioxide,304.18,73.8,10.6,0.09433962264150944,1.7,9.873577235772357,0.000726365
517.11,731.13,14620.0,6.8401e-05,21.186,26.187,79.514,40.96,65.089,580.71,0.016375,58.628,0.079051,supercritical,CO2,C124389,carbon-dioxide,304.18,73.8,10.6,0.09433962264150944,1.7,9.906910569105692,0.0007250506
517.11,733.58,14646.0,6.8279e-05,21.175,26.184,79.476,40.965,65.081,581.81,0.016075,58.763,0.079184,supercritical,CO2,C124389,carbon-dioxide,304.18,73.8,10.6,0.09433962264150944,1.7,9.940108401084013,0.0007237573999999999
517.11,736.04,14672.0,6.8157e-05,21.165,26.181,79.439,40.97,65.073,582.9,0.015776,58.898,0.079317,supercritical,CO2,C124389,carbon-dioxide,304.18,73.8,10.6,0.09433962264150944,1.7,9.973441734417344,0.0007224642
517.11,738.5,14698.0,6.8036e-05,21.154,26.179,79.402,40.974,65.066,584.0,0.01548,59.033,0.07945,supercritical,CO2,C124389,carbon-dioxide,304.18,73.8,10.6,0.09433962264150944,1.7,10.006775067750677,0.0007211815999999999
517.11,740.96,14724.0,6.7916e-05,21.144,26.176,79.364,40.979,65.058,585.09,0.015186,59.168,0.079582,supercritical,CO2,C124389,carbon-dioxide,304.18,73.8,10.6,0.09433962264150944,1.7,10.040108401084012,0.0007199096
517.11,743.42,14750.0,6.7797e-05,21.134,26.174,79.328,40.984,65.05,586.18,0.014894,59.302,0.079714,supercritical,CO2,C124389,carbon-dioxide,304.18,73.8,10.6,0.09433962264150944,1.7,10.073441734417344,0.0007186482
517.11,745.88,14776.0,6.7679e-05,21.124,26.172,79.291,40.989,65.043,587.27,0.014605,59.437,0.079846,supercritical,CO2,C124389,carbon-dioxide,304.18,73.8,10.6,0.09433962264150944,1.7,10.106775067750679,0.0007173974
517.11,748.33,14801.0,6.7562e-05,21.113,26.169,79.254,40.993,65.035,588.36,0.014317,59.571,0.079978,supercritical,CO2,C124389,carbon-dioxide,304.18,73.8,10.6,0.09433962264150944,1.7,10.139972899728999,0.0007161572
517.11,750.79,14827.0,6.7445e-05,21.103,26.167,79.218,40.998,65.027,589.44,0.014032,59.705,0.080109,supercritical,CO2,C124389,carbon-dioxide,304.18,73.8,10.6,0.09433962264150944,1.7,10.17330623306233,0.0007149169999999999
517.11,753.25,14852.0,6.733e-05,21.093,26.165,79.181,41.003,65.019,590.53,0.013749,59.839,0.08024,supercritical,CO2,C124389,carbon-dioxide,304.18,73.8,10.6,0.09433962264150944,1.7,10.206639566395664,0.0007136979999999999
517.11,755.71,14878.0,6.7215e-05,21.083,26.163,79.145,41.008,65.011,591.61,0.013468,59.973,0.080371,supercritical,CO2,C124389,carbon-dioxide,304.18,73.8,10.6,0.09433962264150944,1.7,10.239972899728999,0.0007124789999999999
517.11,758.17,14903.0,6.7101e-05,21.073,26.161,79.109,41.012,65.003,592.7,0.013189,60.107,0.080502,supercritical,CO2,C124389,carbon-dioxide,304.18,73.8,10.6,0.09433962264150944,1.7,10.27330623306233,0.0007112705999999998
517.11,760.63,14928.0,6.6988e-05,21.063,26.158,79.073,41.017,64.995,593.78,0.012912,60.24,0.080632,supercritical,CO2,C124389,carbon-dioxide,304.18,73.8,10.6,0.09433962264150944,1.7,10.306639566395665,0.0007100728
517.11,763.08,14953.0,6.6876e-05,21.053,26.156,79.037,41.022,64.987,594.86,0.012638,60.374,0.080763,supercritical,CO2,C124389,carbon-dioxide,304.18,73.8,10.6,0.09433962264150944,1.7,10.339837398373986,0.0007088856
517.11,765.54,14978.0,6.6764e-05,21.043,26.154,79.002,41.026,64.979,595.94,0.012365,60.507,0.080893,supercritical,CO2,C124389,carbon-dioxide,304.18,73.8,10.6,0.09433962264150944,1.7,10.373170731707317,0.0007076983999999999
517.11,768.0,15003.0,6.6654e-05,21.033,26.152,78.966,41.031,64.971,597.01,0.012094,60.64,0.081022,supercritical,CO2,C124389,carbon-dioxide,304.18,73.8,10.6,0.09433962264150944,1.7,10.40650406504065,0.0007065324
517.11,770.46,15028.0,6.6544e-05,21.024,26.151,78.931,41.036,64.963,598.09,0.011825,60.773,0.081152,supercritical,CO2,C124389,carbon-dioxide,304.18,73.8,10.6,0.09433962264150944,1.7,10.439837398373985,0.0007053664
517.11,772.92,15052.0,6.6435e-05,21.014,26.149,78.896,41.041,64.955,599.17,0.011559,60.906,0.081281,supercritical,CO2,C124389,carbon-dioxide,304.18,73.8,10.6,0.09433962264150944,1.7,10.473170731707317,0.0007042109999999999
517.11,775.38,15077.0,6.6326e-05,21.004,26.147,78.861,41.045,64.947,600.24,0.011294,61.039,0.08141,supercritical,CO2,C124389,carbon-dioxide,304.18,73.8,10.6,0.09433962264150944,1.7,10.506504065040652,0.0007030555999999999
517.11,777.83,15101.0,6.6219e-05,20.994,26.145,78.826,41.05,64.939,601.31,0.011031,61.171,0.081539,supercritical,CO2,C124389,carbon-dioxide,304.18,73.8,10.6,0.09433962264150944,1.7,10.539701897018972,0.0007019213999999999
517.11,780.29,15126.0,6.6112e-05,20.985,26.143,78.791,41.055,64.931,602.39,0.01077,61.303,0.081668,supercritical,CO2,C124389,carbon-dioxide,304.18,73.8,10.6,0.09433962264150944,1.7,10.573035230352303,0.0007007872
517.11,782.75,15150.0,6.6006e-05,20.975,26.142,78.756,41.059,64.923,603.46,0.010511,61.436,0.081796,supercritical,CO2,C124389,carbon-dioxide,304.18,73.8,10.6,0.09433962264150944,1.7,10.606368563685637,0.0006996636
517.11,785.21,15174.0,6.5901e-05,20.965,26.14,78.722,41.064,64.914,604.53,0.010253,61.568,0.081924,supercritical,CO2,C124389,carbon-dioxide,304.18,73.8,10.6,0.09433962264150944,1.7,10.639701897018972,0.0006985506
517.11,787.67,15198.0,6.5796e-05,20.956,26.138,78.687,41.069,64.906,605.59,0.0099981,61.7,0.082052,supercritical,CO2,C124389,carbon-dioxide,304.18,73.8,10.6,0.09433962264150944,1.7,10.673035230352303,0.0006974376
517.11,790.12,15222.0,6.5692e-05,20.946,26.137,78.653,41.073,64.898,606.66,0.0097445,61.831,0.08218,supercritical,CO2,C124389,carbon-dioxide,304.18,73.8,10.6,0.09433962264150944,1.7,10.706233062330623,0.0006963351999999999
517.11,792.58,15246.0,6.5589e-05,20.937,26.135,78.619,41.078,64.889,607.73,0.0094927,61.963,0.082308,supercritical,CO2,C124389,carbon-dioxide,304.18,73.8,10.6,0.09433962264150944,1.7,10.739566395663958,0.0006952433999999999
517.11,795.04,15270.0,6.5487e-05,20.927,26.134,78.585,41.083,64.881,608.79,0.0092427,62.095,0.082435,supercritical,CO2,C124389,carbon-dioxide,304.18,73.8,10.6,0.09433962264150944,1.7,10.77289972899729,0.0006941622
517.11,797.5,15294.0,6.5385e-05,20.918,26.132,78.551,41.087,64.873,609.85,0.0089944,62.226,0.082562,supercritical,CO2,C124389,carbon-dioxide,304.18,73.8,10.6,0.09433962264150944,1.7,10.806233062330623,0.0006930809999999999
517.11,799.96,15318.0,6.5284e-05,20.908,26.131,78.517,41.092,64.864,610.92,0.008748,62.357,0.082689,supercritical,CO2,C124389,carbon-dioxide,304.18,73.8,10.6,0.09433962264150944,1.7,10.839566395663958,0.0006920103999999999
517.11,802.42,15341.0,6.5184e-05,20.899,26.13,78.483,41.097,64.856,611.98,0.0085032,62.488,0.082816,supercritical,CO2,C124389,carbon-dioxide,304.18,73.8,10.6,0.09433962264150944,1.7,10.87289972899729,0.0006909504
517.11,804.87,15365.0,6.5084e-05,20.89,26.128,78.45,41.101,64.848,613.04,0.0082602,62.619,0.082943,supercritical,CO2,C124389,carbon-dioxide,304.18,73.8,10.6,0.09433962264150944,1.7,10.90609756097561,0.0006898904
517.11,807.33,15388.0,6.4985e-05,20.88,26.127,78.416,41.106,64.839,614.09,0.0080189,62.75,0.083069,supercritical,CO2,C124389,carbon-dioxide,304.18,73.8,10.6,0.09433962264150944,1.7,10.939430894308945,0.0006888409999999999
517.11,809.79,15411.0,6.4887e-05,20.871,26.126,78.383,41.11,64.831,615.15,0.0077793,62.881,0.083195,supercritical,CO2,C124389,carbon-dioxide,304.18,73.8,10.6,0.09433962264150944,1.7,10.972764227642276,0.0006878022
517.11,812.25,15435.0,6.4789e-05,20.862,26.124,78.35,41.115,64.822,616.21,0.0075413,63.011,0.083321,supercritical,CO2,C124389,carbon-dioxide,304.18,73.8,10.6,0.09433962264150944,1.7,11.00609756097561,0.0006867634
517.11,814.71,15458.0,6.4692e-05,20.853,26.123,78.317,41.12,64.814,617.26,0.007305,63.142,0.083447,supercritical,CO2,C124389,carbon-dioxide,304.18,73.8,10.6,0.09433962264150944,1.7,11.039430894308945,0.0006857351999999999
517.11,817.17,15481.0,6.4596e-05,20.844,26.122,78.284,41.124,64.805,618.31,0.0070704,63.272,0.083572,supercritical,CO2,C124389,carbon-dioxide,304.18,73.8,10.6,0.09433962264150944,1.7,11.072764227642276,0.0006847175999999999
517.11,819.62,15504.0,6.45e-05,20.834,26.121,78.251,41.129,64.797,619.37,0.0068374,63.402,0.083697,supercritical,CO2,C124389,carbon-dioxide,304.18,73.8,10.6,0.09433962264150944,1.7,11.105962059620596,0.0006836999999999999
517.11,822.08,15527.0,6.4405e-05,20.825,26.12,78.218,41.134,64.788,620.42,0.0066059,63.532,0.083823,supercritical,CO2,C124389,carbon-dioxide,304.18,73.8,10.6,0.09433962264150944,1.7,11.139295392953931,0.000682693
517.11,824.54,15550.0,6.431e-05,20.816,26.119,78.186,41.138,64.78,621.47,0.0063761,63.662,0.083947,supercritical,CO2,C124389,carbon-dioxide,304.18,73.8,10.6,0.09433962264150944,1.7,11.172628726287263,0.0006816859999999999
517.11,827.0,15572.0,6.4216e-05,20.807,26.118,78.153,41.143,64.771,622.51,0.0061479,63.791,0.084072,supercritical,CO2,C124389,carbon-dioxide,304.18,73.8,10.6,0.09433962264150944,1.7,11.205962059620596,0.0006806895999999999
517.11,829.46,15595.0,6.4123e-05,20.798,26.117,78.121,41.147,64.763,623.56,0.0059212,63.921,0.084197,supercritical,CO2,C124389,carbon-dioxide,304.18,73.8,10.6,0.09433962264150944,1.7,11.239295392953931,0.0006797037999999999
517.11,831.92,15618.0,6.403e-05,20.789,26.116,78.089,41.152,64.754,624.61,0.0056961,64.05,0.084321,supercritical,CO2,C124389,carbon-dioxide,304.18,73.8,10.6,0.09433962264150944,1.7,11.272628726287262,0.0006787179999999999
517.11,834.37,15640.0,6.3938e-05,20.78,26.115,78.056,41.157,64.746,625.65,0.0054725,64.179,0.084445,supercritical,CO2,C124389,carbon-dioxide,304.18,73.8,10.6,0.09433962264150944,1.7,11.305826558265583,0.0006777427999999999
517.11,836.83,15662.0,6.3847e-05,20.771,26.114,78.024,41.161,64.737,626.69,0.0052504,64.309,0.084569,supercritical,CO2,C124389,carbon-dioxide,304.18,73.8,10.6,0.09433962264150944,1.7,11.339159891598918,0.0006767781999999999
517.11,839.29,15685.0,6.3756e-05,20.762,26.113,77.993,41.166,64.728,627.74,0.0050298,64.438,0.084693,supercritical,CO2,C124389,carbon-dioxide,304.18,73.8,10.6,0.09433962264150944,1.7,11.37249322493225,0.0006758136
517.11,841.75,15707.0,6.3666e-05,20.754,26.113,77.961,41.17,64.72,628.78,0.0048107,64.566,0.084816,supercritical,CO2,C124389,carbon-dioxide,304.18,73.8,10.6,0.09433962264150944,1.7,11.405826558265582,0.0006748595999999999
517.11,844.21,15729.0,6.3576e-05,20.745,26.112,77.929,41.175,64.711,629.82,0.0045931,64.695,0.08494,supercritical,CO2,C124389,carbon-dioxide,304.18,73.8,10.6,0.09433962264150944,1.7,11.439159891598917,0.0006739056
517.11,846.67,15751.0,6.3487e-05,20.736,26.111,77.897,41.18,64.703,630.85,0.004377,64.824,0.085063,supercritical,CO2,C124389,carbon-dioxide,304.18,73.8,10.6,0.09433962264150944,1.7,11.472493224932249,0.0006729621999999999
517.11,849.12,15773.0,6.3398e-05,20.727,26.111,77.866,41.184,64.694,631.89,0.0041623,64.952,0.085186,supercritical,CO2,C124389,carbon-dioxide,304.18,73.8,10.6,0.09433962264150944,1.7,11.50569105691057,0.0006720188
517.11,851.58,15795.0,6.331e-05,20.718,26.11,77.835,41.189,64.685,632.93,0.0039491,65.08,0.085309,supercritical,CO2,C124389,carbon-dioxide,304.18,73.8,10.6,0.09433962264150944,1.7,11.539024390243904,0.000671086
517.11,854.04,15817.0,6.3223e-05,20.71,26.109,77.803,41.193,64.677,633.96,0.0037373,65.208,0.085432,supercritical,CO2,C124389,carbon-dioxide,304.18,73.8,10.6,0.09433962264150944,1.7,11.572357723577236,0.0006701637999999999
517.11,856.5,15839.0,6.3136e-05,20.701,26.109,77.772,41.198,64.668,634.99,0.0035269,65.336,0.085554,supercritical,CO2,C124389,carbon-dioxide,304.18,73.8,10.6,0.09433962264150944,1.7,11.605691056910569,0.0006692416
517.11,858.96,15861.0,6.3049e-05,20.692,26.108,77.741,41.203,64.66,636.03,0.0033179,65.464,0.085676,supercritical,CO2,C124389,carbon-dioxide,304.18,73.8,10.6,0.09433962264150944,1.7,11.639024390243904,0.0006683193999999999
517.11,861.42,15882.0,6.2963e-05,20.684,26.108,77.71,41.207,64.651,637.06,0.0031102,65.592,0.085799,supercritical,CO2,C124389,carbon-dioxide,304.18,73.8,10.6,0.09433962264150944,1.7,11.672357723577235,0.0006674077999999999
517.11,863.87,15904.0,6.2878e-05,20.675,26.107,77.679,41.212,64.642,638.09,0.002904,65.72,0.085921,supercritical,CO2,C124389,carbon-dioxide,304.18,73.8,10.6,0.09433962264150944,1.7,11.705555555555556,0.0006665068
517.11,866.33,15925.0,6.2793e-05,20.667,26.107,77.649,41.216,64.634,639.11,0.0026991,65.847,0.086042,supercritical,CO2,C124389,carbon-dioxide,304.18,73.8,10.6,0.09433962264150944,1.7,11.73888888888889,0.0006656057999999998
517.11,868.79,15947.0,6.2709e-05,20.658,26.106,77.618,41.221,64.625,640.14,0.0024956,65.974,0.086164,supercritical,CO2,C124389,carbon-dioxide,304.18,73.8,10.6,0.09433962264150944,1.7,11.772222222222222,0.0006647153999999999
517.11,871.25,15968.0,6.2625e-05,20.65,26.106,77.588,41.225,64.616,641.17,0.0022934,66.101,0.086285,supercritical,CO2,C124389,carbon-dioxide,304.18,73.8,10.6,0.09433962264150944,1.7,11.805555555555555,0.000663825
517.11,873.71,15989.0,6.2542e-05,20.641,26.106,77.557,41.23,64.608,642.19,0.0020926,66.228,0.086407,supercritical,CO2,C124389,carbon-dioxide,304.18,73.8,10.6,0.09433962264150944,1.7,11.83888888888889,0.0006629451999999999
517.11,876.17,16010.0,6.2459e-05,20.633,26.105,77.527,41.235,64.599,643.21,0.0018931,66.355,0.086528,supercritical,CO2,C124389,carbon-dioxide,304.18,73.8,10.6,0.09433962264150944,1.7,11.872222222222222,0.0006620654
517.11,878.62,16032.0,6.2377e-05,20.624,26.105,77.497,41.239,64.59,644.24,0.0016948,66.482,0.086649,supercritical,CO2,C124389,carbon-dioxide,304.18,73.8,10.6,0.09433962264150944,1.7,11.905420054200542,0.0006611962
517.11,881.08,16053.0,6.2295e-05,20.616,26.105,77.466,41.244,64.582,645.26,0.0014979,66.609,0.086769,supercritical,CO2,C124389,carbon-dioxide,304.18,73.8,10.6,0.09433962264150944,1.7,11.938753387533877,0.0006603269999999999
517.11,883.54,16074.0,6.2214e-05,20.608,26.104,77.436,41.248,64.573,646.28,0.0013022,66.735,0.08689,supercritical,CO2,C124389,carbon-dioxide,304.18,73.8,10.6,0.09433962264150944,1.7,11.972086720867209,0.0006594683999999999
517.11,886.0,16095.0,6.2133e-05,20.599,26.104,77.406,41.253,64.565,647.29,0.0011079,66.862,0.08701,supercritical,CO2,C124389,carbon-dioxide,304.18,73.8,10.6,0.09433962264150944,1.7,12.005420054200542,0.0006586097999999999
517.11,888.46,16115.0,6.2053e-05,20.591,26.104,77.377,41.257,64.556,648.31,0.00091475,66.988,0.087131,supercritical,CO2,C124389,carbon-dioxide,304.18,73.8,10.6,0.09433962264150944,1.7,12.038753387533877,0.0006577617999999999
517.11,890.92,16136.0,6.1973e-05,20.583,26.104,77.347,41.262,64.547,649.33,0.00072289,67.114,0.087251,supercritical,CO2,C124389,carbon-dioxide,304.18,73.8,10.6,0.09433962264150944,1.7,12.072086720867208,0.0006569137999999999
517.11,893.37,16157.0,6.1893e-05,20.574,26.104,77.317,41.267,64.539,650.34,0.00053227,67.24,0.087371,supercritical,CO2,C124389,carbon-dioxide,304.18,73.8,10.6,0.09433962264150944,1.7,12.105284552845529,0.0006560657999999999