Temperature (K),Pressure (bar),Density (mol/m3),Volume (m3/mol),Internal Energy (kJ/mol),Enthalpy (kJ/mol),Entropy (J/mol*K),Cv (J/mol*K),Cp (J/mol*K),Sound Spd. (m/s),Joule-Thomson (K/bar),Viscosity (uPa*s),Therm. Cond. (W/m*K),Phase,substance,substance_id,substance_name,Tc,Pc,rhoc,Vmc,Tr,Pr,Vmr
278.24,263.08,12149.0,8.2314e-05,3.9818,6.1473,151.12,22.759,43.957,391.25,0.098315,30.886,0.044201,supercritical,O2,C7782447,oxygen,154.58,50.43,13.6,0.07352941176470588,1.8,5.2167360697997225,0.0011194704
278.24,264.44,12202.0,8.1952e-05,3.9742,6.1414,151.06,22.764,43.981,392.02,0.097446,30.972,0.044325,supercritical,O2,C7782447,oxygen,154.58,50.43,13.6,0.07352941176470588,1.8,5.243704144358516,0.0011145472
278.24,265.81,12256.0,8.1594e-05,3.9667,6.1356,150.99,22.769,44.005,392.8,0.096583,31.057,0.044449,supercritical,O2,C7782447,oxygen,154.58,50.43,13.6,0.07352941176470588,1.8,5.270870513583184,0.0011096784
278.24,267.18,12309.0,8.124e-05,3.9593,6.1298,150.93,22.773,44.028,393.58,0.095725,31.142,0.044573,supercritical,O2,C7782447,oxygen,154.58,50.43,13.6,0.07352941176470588,1.8,5.298036882807852,0.0011048639999999999
278.24,268.54,12362.0,8.0891e-05,3.9518,6.1241,150.87,22.778,44.051,394.36,0.094872,31.227,0.044696,supercritical,O2,C7782447,oxygen,154.58,50.43,13.6,0.07352941176470588,1.8,5.325004957366647,0.0011001175999999998
278.24,269.9,12415.0,8.0546e-05,3.9444,6.1184,150.81,22.783,44.073,395.14,0.094025,31.313,0.04482,supercritical,O2,C7782447,oxygen,154.58,50.43,13.6,0.07352941176470588,1.8,5.351973031925441,0.0010954256
278.24,271.27,12468.0,8.0205e-05,3.937,6.1128,150.75,22.787,44.095,395.93,0.093184,31.398,0.044943,supercritical,O2,C7782447,oxygen,154.58,50.43,13.6,0.07352941176470588,1.8,5.379139401150109,0.0010907879999999999
278.24,272.63,12521.0,7.9868e-05,3.9297,6.1072,150.69,22.792,44.116,396.72,0.092348,31.483,0.045066,supercritical,O2,C7782447,oxygen,154.58,50.43,13.6,0.07352941176470588,1.8,5.406107475708903,0.0010862048
278.24,274.0,12573.0,7.9536e-05,3.9224,6.1016,150.64,22.797,44.136,397.5,0.091517,31.569,0.045189,supercritical,O2,C7782447,oxygen,154.58,50.43,13.6,0.07352941176470588,1.8,5.433273844933571,0.0010816896
278.24,275.37,12625.0,7.9207e-05,3.9151,6.0962,150.58,22.801,44.156,398.29,0.090692,31.654,0.045312,supercritical,O2,C7782447,oxygen,154.58,50.43,13.6,0.07352941176470588,1.8,5.460440214158239,0.0010772152
278.24,276.73,12677.0,7.8882e-05,3.9078,6.0907,150.52,22.806,44.176,399.09,0.089872,31.739,0.045435,supercritical,O2,C7782447,oxygen,154.58,50.43,13.6,0.07352941176470588,1.8,5.487408288717034,0.0010727952
278.24,278.1,12729.0,7.8561e-05,3.9006,6.0853,150.46,22.81,44.195,399.88,0.089057,31.824,0.045557,supercritical,O2,C7782447,oxygen,154.58,50.43,13.6,0.07352941176470588,1.8,5.514574657941702,0.0010684295999999999
278.24,279.46,12780.0,7.8244e-05,3.8934,6.08,150.4,22.815,44.213,400.68,0.088248,31.91,0.04568,supercritical,O2,C7782447,oxygen,154.58,50.43,13.6,0.07352941176470588,1.8,5.541542732500496,0.0010641184
278.24,280.82,12832.0,7.7931e-05,3.8862,6.0747,150.35,22.82,44.231,401.47,0.087444,31.995,0.045802,supercritical,O2,C7782447,oxygen,154.58,50.43,13.6,0.07352941176470588,1.8,5.56851080705929,0.0010598615999999998
278.24,282.19,12883.0,7.7621e-05,3.879,6.0694,150.29,22.824,44.248,402.27,0.086646,32.08,0.045924,supercritical,O2,C7782447,oxygen,154.58,50.43,13.6,0.07352941176470588,1.8,5.595677176283958,0.0010556455999999998
278.24,283.56,12934.0,7.7315e-05,3.8719,6.0642,150.23,22.828,44.265,403.07,0.085853,32.165,0.046046,supercritical,O2,C7782447,oxygen,154.58,50.43,13.6,0.07352941176470588,1.8,5.622843545508626,0.0010514839999999999
278.24,284.92,12985.0,7.7012e-05,3.8648,6.059,150.17,22.833,44.281,403.87,0.085065,32.25,0.046168,supercritical,O2,C7782447,oxygen,154.58,50.43,13.6,0.07352941176470588,1.8,5.64981162006742,0.0010473632
278.24,286.29,13036.0,7.6713e-05,3.8577,6.0539,150.12,22.837,44.297,404.68,0.084282,32.335,0.04629,supercritical,O2,C7782447,oxygen,154.58,50.43,13.6,0.07352941176470588,1.8,5.676977989292088,0.0010432967999999998
278.24,287.65,13086.0,7.6418e-05,3.8507,6.0488,150.06,22.842,44.312,405.48,0.083505,32.42,0.046411,supercritical,O2,C7782447,oxygen,154.58,50.43,13.6,0.07352941176470588,1.8,5.703946063850882,0.0010392848
278.24,289.01,13136.0,7.6126e-05,3.8437,6.0438,150.01,22.846,44.327,406.28,0.082733,32.505,0.046532,supercritical,O2,C7782447,oxygen,154.58,50.43,13.6,0.07352941176470588,1.8,5.730914138409677,0.0010353136
278.24,290.38,13186.0,7.5837e-05,3.8367,6.0388,149.95,22.85,44.342,407.09,0.081966,32.59,0.046653,supercritical,O2,C7782447,oxygen,154.58,50.43,13.6,0.07352941176470588,1.8,5.758080507634345,0.0010313832
278.24,291.75,13236.0,7.5551e-05,3.8297,6.0339,149.9,22.855,44.356,407.9,0.081204,32.675,0.046774,supercritical,O2,C7782447,oxygen,154.58,50.43,13.6,0.07352941176470588,1.8,5.785246876859013,0.0010274936
278.24,293.11,13286.0,7.5269e-05,3.8228,6.029,149.84,22.859,44.369,408.71,0.080448,32.76,0.046895,supercritical,O2,C7782447,oxygen,154.58,50.43,13.6,0.07352941176470588,1.8,5.812214951417807,0.0010236584
278.24,294.48,13335.0,7.4989e-05,3.8159,6.0241,149.79,22.863,44.382,409.52,0.079696,32.844,0.047016,supercritical,O2,C7782447,oxygen,154.58,50.43,13.6,0.07352941176470588,1.8,5.839381320642475,0.0010198504
278.24,295.84,13385.0,7.4713e-05,3.809,6.0193,149.73,22.868,44.395,410.33,0.07895,32.929,0.047136,supercritical,O2,C7782447,oxygen,154.58,50.43,13.6,0.07352941176470588,1.8,5.866349395201269,0.0010160968
278.24,297.2,13434.0,7.444e-05,3.8022,6.0146,149.68,22.872,44.407,411.14,0.078209,33.014,0.047257,supercritical,O2,C7782447,oxygen,154.58,50.43,13.6,0.07352941176470588,1.8,5.893317469760063,0.0010123839999999999
278.24,298.57,13483.0,7.417e-05,3.7954,6.0099,149.63,22.876,44.419,411.96,0.077473,33.098,0.047377,supercritical,O2,C7782447,oxygen,154.58,50.43,13.6,0.07352941176470588,1.8,5.920483838984731,0.001008712
278.24,299.94,13531.0,7.3903e-05,3.7886,6.0052,149.57,22.88,44.43,412.77,0.076741,33.183,0.047497,supercritical,O2,C7782447,oxygen,154.58,50.43,13.6,0.07352941176470588,1.8,5.947650208209399,0.0010050808
278.24,301.3,13580.0,7.3639e-05,3.7818,6.0006,149.52,22.885,44.441,413.59,0.076015,33.267,0.047616,supercritical,O2,C7782447,oxygen,154.58,50.43,13.6,0.07352941176470588,1.8,5.974618282768194,0.0010014904
278.24,302.67,13628.0,7.3378e-05,3.7751,5.996,149.47,22.889,44.451,414.41,0.075294,33.351,0.047736,supercritical,O2,C7782447,oxygen,154.58,50.43,13.6,0.07352941176470588,1.8,6.001784651992862,0.0009979408
278.24,304.03,13676.0,7.312e-05,3.7684,5.9914,149.42,22.893,44.461,415.23,0.074578,33.436,0.047855,supercritical,O2,C7782447,oxygen,154.58,50.43,13.6,0.07352941176470588,1.8,6.028752726551655,0.000994432
278.24,305.39,13724.0,7.2864e-05,3.7617,5.9869,149.36,22.897,44.471,416.04,0.073867,33.52,0.047974,supercritical,O2,C7782447,oxygen,154.58,50.43,13.6,0.07352941176470588,1.8,6.05572080111045,0.0009909504
278.24,306.76,13772.0,7.2611e-05,3.755,5.9824,149.31,22.901,44.48,416.86,0.073161,33.604,0.048093,supercritical,O2,C7782447,oxygen,154.58,50.43,13.6,0.07352941176470588,1.8,6.082887170335118,0.0009875096
278.24,308.12,13820.0,7.2361e-05,3.7484,5.978,149.26,22.905,44.489,417.69,0.072459,33.688,0.048212,supercritical,O2,C7782447,oxygen,154.58,50.43,13.6,0.07352941176470588,1.8,6.109855244893913,0.0009841096
278.24,309.49,13867.0,7.2114e-05,3.7418,5.9736,149.21,22.909,44.497,418.51,0.071763,33.772,0.048331,supercritical,O2,C7782447,oxygen,154.58,50.43,13.6,0.07352941176470588,1.8,6.137021614118581,0.0009807504
278.24,310.86,13914.0,7.1869e-05,3.7352,5.9693,149.16,22.914,44.505,419.33,0.071071,33.856,0.048449,supercritical,O2,C7782447,oxygen,154.58,50.43,13.6,0.07352941176470588,1.8,6.164187983343249,0.0009774184
278.24,312.22,13961.0,7.1627e-05,3.7287,5.965,149.11,22.918,44.513,420.15,0.070384,33.94,0.048567,supercritical,O2,C7782447,oxygen,154.58,50.43,13.6,0.07352941176470588,1.8,6.191156057902043,0.0009741271999999999
278.24,313.58,14008.0,7.1388e-05,3.7221,5.9608,149.06,22.922,44.52,420.98,0.069702,34.024,0.048685,supercritical,O2,C7782447,oxygen,154.58,50.43,13.6,0.07352941176470588,1.8,6.2181241324608365,0.0009708768
278.24,314.95,14055.0,7.1151e-05,3.7156,5.9565,149.01,22.926,44.527,421.8,0.069025,34.108,0.048803,supercritical,O2,C7782447,oxygen,154.58,50.43,13.6,0.07352941176470588,1.8,6.2452905016855045,0.0009676536
278.24,316.31,14101.0,7.0916e-05,3.7092,5.9524,148.96,22.93,44.534,422.63,0.068352,34.191,0.048921,supercritical,O2,C7782447,oxygen,154.58,50.43,13.6,0.07352941176470588,1.8,6.272258576244299,0.0009644575999999999
278.24,317.68,14147.0,7.0684e-05,3.7027,5.9482,148.91,22.934,44.54,423.46,0.067684,34.275,0.049038,supercritical,O2,C7782447,oxygen,154.58,50.43,13.6,0.07352941176470588,1.8,6.299424945468967,0.0009613024000000001
278.24,319.05,14194.0,7.0455e-05,3.6963,5.9441,148.86,22.938,44.546,424.28,0.067021,34.358,0.049155,supercritical,O2,C7782447,oxygen,154.58,50.43,13.6,0.07352941176470588,1.8,6.326591314693635,0.000958188
278.24,320.41,14239.0,7.0227e-05,3.6899,5.9401,148.81,22.942,44.552,425.11,0.066362,34.442,0.049272,supercritical,O2,C7782447,oxygen,154.58,50.43,13.6,0.07352941176470588,1.8,6.35355938925243,0.0009550872
278.24,321.77,14285.0,7.0002e-05,3.6836,5.9361,148.76,22.946,44.557,425.94,0.065708,34.525,0.049389,supercritical,O2,C7782447,oxygen,154.58,50.43,13.6,0.07352941176470588,1.8,6.380527463811223,0.0009520272
278.24,323.14,14331.0,6.978e-05,3.6772,5.9321,148.71,22.95,44.562,426.77,0.065059,34.608,0.049506,supercritical,O2,C7782447,oxygen,154.58,50.43,13.6,0.07352941176470588,1.8,6.407693833035891,0.000949008
278.24,324.5,14376.0,6.9559e-05,3.6709,5.9281,148.66,22.953,44.566,427.6,0.064414,34.691,0.049622,supercritical,O2,C7782447,oxygen,154.58,50.43,13.6,0.07352941176470588,1.8,6.434661907594686,0.0009460024
278.24,325.87,14421.0,6.9341e-05,3.6646,5.9242,148.62,22.957,44.571,428.43,0.063774,34.774,0.049738,supercritical,O2,C7782447,oxygen,154.58,50.43,13.6,0.07352941176470588,1.8,6.461828276819354,0.0009430376
278.24,327.24,14466.0,6.9126e-05,3.6584,5.9204,148.57,22.961,44.575,429.26,0.063138,34.857,0.049854,supercritical,O2,C7782447,oxygen,154.58,50.43,13.6,0.07352941176470588,1.8,6.488994646044022,0.0009401136
278.24,328.6,14511.0,6.8912e-05,3.6521,5.9166,148.52,22.965,44.578,430.09,0.062507,34.94,0.04997,supercritical,O2,C7782447,oxygen,154.58,50.43,13.6,0.07352941176470588,1.8,6.515962720602817,0.0009372031999999999
278.24,329.96,14556.0,6.87e-05,3.6459,5.9128,148.47,22.969,44.582,430.92,0.06188,35.023,0.050086,supercritical,O2,C7782447,oxygen,154.58,50.43,13.6,0.07352941176470588,1.8,6.54293079516161,0.00093432
278.24,331.33,14600.0,6.8491e-05,3.6397,5.909,148.43,22.973,44.585,431.75,0.061257,35.105,0.050201,supercritical,O2,C7782447,oxygen,154.58,50.43,13.6,0.07352941176470588,1.8,6.5700971643862776,0.0009314776000000001
278.24,332.69,14645.0,6.8284e-05,3.6336,5.9053,148.38,22.977,44.587,432.58,0.060639,35.188,0.050316,supercritical,O2,C7782447,oxygen,154.58,50.43,13.6,0.07352941176470588,1.8,6.597065238945072,0.0009286623999999999
278.24,334.06,14689.0,6.8078e-05,3.6274,5.9017,148.33,22.981,44.59,433.42,0.060026,35.27,0.050431,supercritical,O2,C7782447,oxygen,154.58,50.43,13.6,0.07352941176470588,1.8,6.62423160816974,0.0009258607999999999
278.24,335.43,14733.0,6.7875e-05,3.6213,5.898,148.29,22.984,44.592,434.25,0.059416,35.353,0.050546,supercritical,O2,C7782447,oxygen,154.58,50.43,13.6,0.07352941176470588,1.8,6.651397977394408,0.0009230999999999999
278.24,336.79,14777.0,6.7674e-05,3.6152,5.8944,148.24,22.988,44.594,435.08,0.058811,35.435,0.050661,supercritical,O2,C7782447,oxygen,154.58,50.43,13.6,0.07352941176470588,1.8,6.678366051953203,0.0009203664
278.24,338.15,14820.0,6.7475e-05,3.6092,5.8909,148.19,22.992,44.596,435.92,0.058211,35.517,0.050775,supercritical,O2,C7782447,oxygen,154.58,50.43,13.6,0.07352941176470588,1.8,6.705334126511996,0.0009176599999999999
278.24,339.52,14864.0,6.7278e-05,3.6031,5.8873,148.15,22.996,44.597,436.75,0.057614,35.599,0.050889,supercritical,O2,C7782447,oxygen,154.58,50.43,13.6,0.07352941176470588,1.8,6.732500495736664,0.0009149808
278.24,340.88,14907.0,6.7082e-05,3.5971,5.8838,148.1,23.0,44.598,437.59,0.057022,35.681,0.051003,supercritical,O2,C7782447,oxygen,154.58,50.43,13.6,0.07352941176470588,1.8,6.759468570295459,0.0009123152000000001
278.24,342.25,14950.0,6.6889e-05,3.5911,5.8804,148.06,23.003,44.599,438.42,0.056434,35.763,0.051117,supercritical,O2,C7782447,oxygen,154.58,50.43,13.6,0.07352941176470588,1.8,6.786634939520127,0.0009096904
278.24,343.62,14993.0,6.6697e-05,3.5852,5.877,148.01,23.007,44.599,439.25,0.05585,35.845,0.051231,supercritical,O2,C7782447,oxygen,154.58,50.43,13.6,0.07352941176470588,1.8,6.813801308744795,0.0009070792
278.24,344.98,15036.0,6.6507e-05,3.5792,5.8736,147.97,23.011,44.6,440.09,0.05527,35.927,0.051344,supercritical,O2,C7782447,oxygen,154.58,50.43,13.6,0.07352941176470588,1.8,6.84076938330359,0.0009044952
278.24,346.35,15079.0,6.632e-05,3.5733,5.8702,147.92,23.014,44.6,440.92,0.054694,36.009,0.051457,supercritical,O2,C7782447,oxygen,154.58,50.43,13.6,0.07352941176470588,1.8,6.867935752528258,0.000901952
278.24,347.71,15121.0,6.6133e-05,3.5674,5.8669,147.88,23.018,44.6,441.76,0.054122,36.09,0.05157,supercritical,O2,C7782447,oxygen,154.58,50.43,13.6,0.07352941176470588,1.8,6.894903827087051,0.0008994087999999999
278.24,349.07,15163.0,6.5949e-05,3.5615,5.8637,147.84,23.022,44.599,442.6,0.053555,36.171,0.051683,supercritical,O2,C7782447,oxygen,154.58,50.43,13.6,0.07352941176470588,1.8,6.921871901645845,0.0008969064
278.24,350.44,15205.0,6.5766e-05,3.5557,5.8604,147.79,23.026,44.599,443.43,0.052991,36.253,0.051795,supercritical,O2,C7782447,oxygen,154.58,50.43,13.6,0.07352941176470588,1.8,6.949038270870513,0.0008944175999999999
278.24,351.81,15247.0,6.5586e-05,3.5499,5.8572,147.75,23.029,44.598,444.27,0.052432,36.334,0.051908,supercritical,O2,C7782447,oxygen,154.58,50.43,13.6,0.07352941176470588,1.8,6.976204640095181,0.0008919696
278.24,353.17,15289.0,6.5406e-05,3.5441,5.854,147.7,23.033,44.597,445.1,0.051876,36.415,0.05202,supercritical,O2,C7782447,oxygen,154.58,50.43,13.6,0.07352941176470588,1.8,7.003172714653976,0.0008895216
278.24,354.54,15331.0,6.5229e-05,3.5383,5.8509,147.66,23.037,44.595,445.94,0.051324,36.496,0.052132,supercritical,O2,C7782447,oxygen,154.58,50.43,13.6,0.07352941176470588,1.8,7.030339083878644,0.0008871143999999999
278.24,355.9,15372.0,6.5053e-05,3.5325,5.8478,147.62,23.04,44.594,446.77,0.050777,36.577,0.052244,supercritical,O2,C7782447,oxygen,154.58,50.43,13.6,0.07352941176470588,1.8,7.057307158437438,0.0008847208
278.24,357.26,15413.0,6.4879e-05,3.5268,5.8447,147.57,23.044,44.592,447.61,0.050233,36.658,0.052355,supercritical,O2,C7782447,oxygen,154.58,50.43,13.6,0.07352941176470588,1.8,7.084275232996232,0.0008823543999999999
278.24,358.63,15454.0,6.4706e-05,3.5211,5.8417,147.53,23.048,44.59,448.45,0.049693,36.739,0.052467,supercritical,O2,C7782447,oxygen,154.58,50.43,13.6,0.07352941176470588,1.8,7.1114416022209,0.0008800015999999999
278.24,360.0,15495.0,6.4535e-05,3.5154,5.8387,147.49,23.051,44.588,449.28,0.049156,36.819,0.052578,supercritical,O2,C7782447,oxygen,154.58,50.43,13.6,0.07352941176470588,1.8,7.138607971445568,0.0008776760000000001
278.24,361.36,15536.0,6.4366e-05,3.5098,5.8357,147.45,23.055,44.586,450.12,0.048624,36.9,0.052689,supercritical,O2,C7782447,oxygen,154.58,50.43,13.6,0.07352941176470588,1.8,7.165576046004363,0.0008753776
278.24,362.73,15577.0,6.4198e-05,3.5041,5.8327,147.4,23.058,44.583,450.95,0.048095,36.98,0.0528,supercritical,O2,C7782447,oxygen,154.58,50.43,13.6,0.07352941176470588,1.8,7.192742415229031,0.0008730928
278.24,364.09,15617.0,6.4031e-05,3.4985,5.8298,147.36,23.062,44.581,451.79,0.04757,37.061,0.052911,supercritical,O2,C7782447,oxygen,154.58,50.43,13.6,0.07352941176470588,1.8,7.219710489787825,0.0008708215999999999
278.24,365.45,15658.0,6.3866e-05,3.4929,5.8269,147.32,23.066,44.578,452.62,0.047049,37.141,0.053021,supercritical,O2,C7782447,oxygen,154.58,50.43,13.6,0.07352941176470588,1.8,7.2466785643466185,0.0008685776
278.24,366.82,15698.0,6.3703e-05,3.4873,5.8241,147.28,23.069,44.575,453.46,0.046531,37.221,0.053131,supercritical,O2,C7782447,oxygen,154.58,50.43,13.6,0.07352941176470588,1.8,7.2738449335712865,0.0008663607999999999
278.24,368.19,15738.0,6.3541e-05,3.4818,5.8213,147.24,23.073,44.571,454.3,0.046017,37.301,0.053241,supercritical,O2,C7782447,oxygen,154.58,50.43,13.6,0.07352941176470588,1.8,7.3010113027959544,0.0008641575999999999
278.24,369.55,15778.0,6.3381e-05,3.4763,5.8185,147.2,23.076,44.568,455.13,0.045507,37.381,0.053351,supercritical,O2,C7782447,oxygen,154.58,50.43,13.6,0.07352941176470588,1.8,7.327979377354749,0.0008619815999999999
278.24,370.92,15817.0,6.3222e-05,3.4708,5.8157,147.16,23.08,44.564,455.97,0.045,37.461,0.053461,supercritical,O2,C7782447,oxygen,154.58,50.43,13.6,0.07352941176470588,1.8,7.355145746579417,0.0008598191999999999
278.24,372.28,15857.0,6.3064e-05,3.4653,5.813,147.12,23.083,44.56,456.8,0.044497,37.54,0.05357,supercritical,O2,C7782447,oxygen,154.58,50.43,13.6,0.07352941176470588,1.8,7.382113821138211,0.0008576704000000001
278.24,373.64,15896.0,6.2908e-05,3.4598,5.8103,147.07,23.087,44.556,457.64,0.043998,37.62,0.05368,supercritical,O2,C7782447,oxygen,154.58,50.43,13.6,0.07352941176470588,1.8,7.409081895697006,0.0008555488
278.24,375.01,15936.0,6.2753e-05,3.4544,5.8077,147.03,23.09,44.552,458.47,0.043502,37.7,0.053789,supercritical,O2,C7782447,oxygen,154.58,50.43,13.6,0.07352941176470588,1.8,7.436248264921674,0.0008534408
278.24,376.38,15975.0,6.2599e-05,3.449,5.805,146.99,23.094,44.548,459.3,0.043009,37.779,0.053898,supercritical,O2,C7782447,oxygen,154.58,50.43,13.6,0.07352941176470588,1.8,7.463414634146341,0.0008513464
278.24,377.74,16014.0,6.2447e-05,3.4436,5.8024,146.95,23.097,44.544,460.14,0.04252,37.858,0.054007,supercritical,O2,C7782447,oxygen,154.58,50.43,13.6,0.07352941176470588,1.8,7.490382708705136,0.0008492791999999998
278.24,379.11,16052.0,6.2296e-05,3.4382,5.7999,146.91,23.101,44.539,460.97,0.042034,37.938,0.054115,supercritical,O2,C7782447,oxygen,154.58,50.43,13.6,0.07352941176470588,1.8,7.517549077929804,0.0008472255999999999
278.24,380.47,16091.0,6.2147e-05,3.4328,5.7973,146.87,23.104,44.534,461.81,0.041552,38.017,0.054224,supercritical,O2,C7782447,oxygen,154.58,50.43,13.6,0.07352941176470588,1.8,7.5445171524885986,0.0008451992
278.24,381.83,16129.0,6.1998e-05,3.4275,5.7948,146.84,23.108,44.529,462.64,0.041073,38.096,0.054332,supercritical,O2,C7782447,oxygen,154.58,50.43,13.6,0.07352941176470588,1.8,7.5714852270473925,0.0008431727999999999
278.24,383.2,16168.0,6.1851e-05,3.4222,5.7923,146.8,23.111,44.524,463.47,0.040598,38.175,0.05444,supercritical,O2,C7782447,oxygen,154.58,50.43,13.6,0.07352941176470588,1.8,7.59865159627206,0.0008411736
278.24,384.56,16206.0,6.1706e-05,3.4169,5.7899,146.76,23.115,44.519,464.31,0.040125,38.253,0.054548,supercritical,O2,C7782447,oxygen,154.58,50.43,13.6,0.07352941176470588,1.8,7.625619670830854,0.0008392015999999999
278.24,385.93,16244.0,6.1561e-05,3.4116,5.7875,146.72,23.118,44.514,465.14,0.039656,38.332,0.054656,supercritical,O2,C7782447,oxygen,154.58,50.43,13.6,0.07352941176470588,1.8,7.652786040055522,0.0008372296
278.24,387.3,16282.0,6.1418e-05,3.4064,5.7851,146.68,23.122,44.508,465.97,0.039191,38.411,0.054763,supercritical,O2,C7782447,oxygen,154.58,50.43,13.6,0.07352941176470588,1.8,7.67995240928019,0.0008352848
278.24,388.66,16320.0,6.1276e-05,3.4012,5.7827,146.64,23.125,44.503,466.8,0.038728,38.489,0.05487,supercritical,O2,C7782447,oxygen,154.58,50.43,13.6,0.07352941176470588,1.8,7.706920483838985,0.0008333536
278.24,390.02,16357.0,6.1135e-05,3.3959,5.7804,146.6,23.129,44.497,467.64,0.038269,38.568,0.054978,supercritical,O2,C7782447,oxygen,154.58,50.43,13.6,0.07352941176470588,1.8,7.733888558397779,0.0008314360000000001