Temperature (K),Pressure (bar),Density (mol/m3),Volume (m3/mol),Internal Energy (kJ/mol),Enthalpy (kJ/mol),Entropy (J/mol*K),Cv (J/mol*K),Cp (J/mol*K),Sound Spd. (m/s),Joule-Thomson (K/bar),Viscosity (uPa*s),Therm. Cond. (W/m*K),Phase,substance,substance_id,substance_name,Tc,Pc,rhoc,Vmc,Tr,Pr,Vmr
271.55,979.0,25546.0,3.9145e-05,-0.13329,3.699,87.614,15.913,31.939,750.01,-0.046149,82.243,0.075345,supercritical,Ar,C7440371,argon,150.86,48.9805,13.41,0.07457121551081282,1.8000000000000003,19.987546064250058,0.0005249344500000001