Temperature (K),Pressure (bar),Density (mol/m3),Volume (m3/mol),Internal Energy (kJ/mol),Enthalpy (kJ/mol),Entropy (J/mol*K),Cv (J/mol*K),Cp (J/mol*K),Sound Spd. (m/s),Joule-Thomson (K/bar),Viscosity (uPa*s),Therm. Cond. (W/m*K),Phase,substance,substance_id,substance_name,Tc,Pc,rhoc,Vmc,Tr,Pr,Vmr
271.55,284.62,13324.0,7.5051e-05,1.4767,3.6128,99.903,14.31,35.689,408.61,0.099537,36.714,0.035516,supercritical,Ar,C7440371,argon,150.86,48.9805,13.41,0.07457121551081282,1.8000000000000003,5.810883923193924,0.00100643391
271.55,286.25,13385.0,7.471e-05,1.4685,3.6071,99.836,14.315,35.701,409.61,0.098348,36.841,0.035642,supercritical,Ar,C7440371,argon,150.86,48.9805,13.41,0.07457121551081282,1.8000000000000003,5.844162472820816,0.0010018611
271.55,287.88,13446.0,7.4374e-05,1.4603,3.6014,99.771,14.32,35.712,410.61,0.097169,36.968,0.035769,supercritical,Ar,C7440371,argon,150.86,48.9805,13.41,0.07457121551081282,1.8000000000000003,5.877441022447709,0.00099735534
271.55,289.51,13506.0,7.4042e-05,1.4522,3.5958,99.706,14.325,35.723,411.61,0.096,37.095,0.035895,supercritical,Ar,C7440371,argon,150.86,48.9805,13.41,0.07457121551081282,1.8000000000000003,5.910719572074601,0.00099290322
271.55,291.14,13566.0,7.3715e-05,1.444,3.5902,99.641,14.33,35.733,412.62,0.094842,37.221,0.036021,supercritical,Ar,C7440371,argon,150.86,48.9805,13.41,0.07457121551081282,1.8000000000000003,5.943998121701493,0.0009885181500000001
271.55,292.77,13625.0,7.3393e-05,1.436,3.5847,99.576,14.335,35.743,413.62,0.093693,37.348,0.036147,supercritical,Ar,C7440371,argon,150.86,48.9805,13.41,0.07457121551081282,1.8000000000000003,5.977276671328386,0.00098420013
271.55,294.4,13685.0,7.3075e-05,1.428,3.5793,99.512,14.34,35.751,414.63,0.092555,37.475,0.036273,supercritical,Ar,C7440371,argon,150.86,48.9805,13.41,0.07457121551081282,1.8000000000000003,6.010555220955278,0.0009799357500000002
271.55,296.03,13744.0,7.2761e-05,1.42,3.5739,99.449,14.345,35.759,415.63,0.091427,37.602,0.036399,supercritical,Ar,C7440371,argon,150.86,48.9805,13.41,0.07457121551081282,1.8000000000000003,6.04383377058217,0.0009757250100000002
271.55,297.66,13802.0,7.2451e-05,1.412,3.5686,99.386,14.35,35.767,416.64,0.090309,37.729,0.036524,supercritical,Ar,C7440371,argon,150.86,48.9805,13.41,0.07457121551081282,1.8000000000000003,6.077112320209063,0.0009715679100000002
271.55,299.29,13861.0,7.2146e-05,1.4041,3.5634,99.323,14.355,35.774,417.65,0.089201,37.856,0.03665,supercritical,Ar,C7440371,argon,150.86,48.9805,13.41,0.07457121551081282,1.8000000000000003,6.110390869835956,0.00096747786
271.55,300.92,13919.0,7.1844e-05,1.3963,3.5582,99.261,14.359,35.78,418.66,0.088102,37.982,0.036775,supercritical,Ar,C7440371,argon,150.86,48.9805,13.41,0.07457121551081282,1.8000000000000003,6.143669419462848,0.0009634280400000001
271.55,302.55,13977.0,7.1547e-05,1.3885,3.5531,99.199,14.364,35.786,419.67,0.087014,38.109,0.0369,supercritical,Ar,C7440371,argon,150.86,48.9805,13.41,0.07457121551081282,1.8000000000000003,6.17694796908974,0.0009594452700000001
271.55,304.18,14034.0,7.1253e-05,1.3807,3.5481,99.138,14.369,35.791,420.68,0.085935,38.236,0.037025,supercritical,Ar,C7440371,argon,150.86,48.9805,13.41,0.07457121551081282,1.8000000000000003,6.210226518716633,0.0009555027300000001
271.55,305.81,14092.0,7.0964e-05,1.3729,3.5431,99.077,14.374,35.796,421.69,0.084865,38.363,0.03715,supercritical,Ar,C7440371,argon,150.86,48.9805,13.41,0.07457121551081282,1.8000000000000003,6.2435050683435245,0.00095162724
271.55,307.44,14149.0,7.0678e-05,1.3652,3.5382,99.016,14.378,35.8,422.7,0.083805,38.489,0.037275,supercritical,Ar,C7440371,argon,150.86,48.9805,13.41,0.07457121551081282,1.8000000000000003,6.276783617970417,0.0009477919800000001
271.55,309.07,14205.0,7.0396e-05,1.3576,3.5333,98.956,14.383,35.804,423.71,0.082755,38.616,0.037399,supercritical,Ar,C7440371,argon,150.86,48.9805,13.41,0.07457121551081282,1.8000000000000003,6.310062167597309,0.00094401036
271.55,310.7,14262.0,7.0117e-05,1.35,3.5285,98.896,14.388,35.807,424.72,0.081713,38.742,0.037524,supercritical,Ar,C7440371,argon,150.86,48.9805,13.41,0.07457121551081282,1.8000000000000003,6.343340717224201,0.0009402689700000002
271.55,312.33,14318.0,6.9842e-05,1.3424,3.5238,98.836,14.392,35.809,425.73,0.080681,38.869,0.037648,supercritical,Ar,C7440371,argon,150.86,48.9805,13.41,0.07457121551081282,1.8000000000000003,6.376619266851094,0.0009365812200000001
271.55,313.96,14374.0,6.9571e-05,1.3348,3.5191,98.777,14.397,35.811,426.75,0.079659,38.995,0.037772,supercritical,Ar,C7440371,argon,150.86,48.9805,13.41,0.07457121551081282,1.8000000000000003,6.409897816477986,0.0009329471100000002
271.55,315.59,14429.0,6.9303e-05,1.3273,3.5145,98.719,14.402,35.813,427.76,0.078645,39.121,0.037896,supercritical,Ar,C7440371,argon,150.86,48.9805,13.41,0.07457121551081282,1.8000000000000003,6.443176366104878,0.00092935323
271.55,317.22,14485.0,6.9038e-05,1.3199,3.5099,98.66,14.406,35.814,428.77,0.07764,39.247,0.03802,supercritical,Ar,C7440371,argon,150.86,48.9805,13.41,0.07457121551081282,1.8000000000000003,6.476454915731772,0.0009257995800000001
271.55,318.85,14540.0,6.8777e-05,1.3125,3.5054,98.602,14.411,35.815,429.79,0.076644,39.373,0.038143,supercritical,Ar,C7440371,argon,150.86,48.9805,13.41,0.07457121551081282,1.8000000000000003,6.509733465358663,0.00092229957
271.55,320.48,14595.0,6.8519e-05,1.3051,3.501,98.545,14.415,35.815,430.8,0.075657,39.499,0.038266,supercritical,Ar,C7440371,argon,150.86,48.9805,13.41,0.07457121551081282,1.8000000000000003,6.543012014985556,0.0009188397900000001
271.55,322.11,14649.0,6.8264e-05,1.2977,3.4966,98.488,14.42,35.815,431.82,0.074679,39.625,0.03839,supercritical,Ar,C7440371,argon,150.86,48.9805,13.41,0.07457121551081282,1.8000000000000003,6.5762905646124485,0.00091542024
271.55,323.74,14703.0,6.8012e-05,1.2904,3.4922,98.431,14.424,35.814,432.83,0.073709,39.751,0.038512,supercritical,Ar,C7440371,argon,150.86,48.9805,13.41,0.07457121551081282,1.8000000000000003,6.60956911423934,0.00091204092
271.55,325.37,14757.0,6.7763e-05,1.2831,3.488,98.374,14.429,35.813,433.85,0.072748,39.876,0.038635,supercritical,Ar,C7440371,argon,150.86,48.9805,13.41,0.07457121551081282,1.8000000000000003,6.642847663866233,0.00090870183
271.55,327.0,14811.0,6.7518e-05,1.2759,3.4837,98.318,14.433,35.811,434.86,0.071796,40.002,0.038758,supercritical,Ar,C7440371,argon,150.86,48.9805,13.41,0.07457121551081282,1.8000000000000003,6.6761262134931245,0.00090541638
271.55,328.63,14864.0,6.7275e-05,1.2687,3.4796,98.262,14.438,35.809,435.88,0.070852,40.127,0.03888,supercritical,Ar,C7440371,argon,150.86,48.9805,13.41,0.07457121551081282,1.8000000000000003,6.709404763120017,0.00090215775
271.55,330.26,14917.0,6.7036e-05,1.2615,3.4755,98.207,14.442,35.807,436.89,0.069916,40.252,0.039002,supercritical,Ar,C7440371,argon,150.86,48.9805,13.41,0.07457121551081282,1.8000000000000003,6.74268331274691,0.0008989527600000001
271.55,331.89,14970.0,6.6799e-05,1.2544,3.4714,98.152,14.447,35.804,437.91,0.068989,40.377,0.039124,supercritical,Ar,C7440371,argon,150.86,48.9805,13.41,0.07457121551081282,1.8000000000000003,6.775961862373801,0.00089577459
271.55,333.52,15023.0,6.6565e-05,1.2473,3.4674,98.097,14.451,35.801,438.92,0.06807,40.502,0.039246,supercritical,Ar,C7440371,argon,150.86,48.9805,13.41,0.07457121551081282,1.8000000000000003,6.809240412000694,0.00089263665
271.55,335.15,15075.0,6.6334e-05,1.2403,3.4635,98.043,14.456,35.798,439.93,0.067159,40.627,0.039367,supercritical,Ar,C7440371,argon,150.86,48.9805,13.41,0.07457121551081282,1.8000000000000003,6.8425189616275865,0.0008895389400000002
271.55,336.78,15127.0,6.6106e-05,1.2333,3.4596,97.989,14.46,35.794,440.95,0.066256,40.751,0.039488,supercritical,Ar,C7440371,argon,150.86,48.9805,13.41,0.07457121551081282,1.8000000000000003,6.875797511254478,0.00088648146
271.55,338.41,15179.0,6.588e-05,1.2263,3.4557,97.935,14.465,35.79,441.96,0.065361,40.876,0.039609,supercritical,Ar,C7440371,argon,150.86,48.9805,13.41,0.07457121551081282,1.8000000000000003,6.909076060881372,0.0008834508000000001
271.55,340.04,15231.0,6.5657e-05,1.2194,3.452,97.881,14.469,35.785,442.98,0.064474,41.0,0.03973,supercritical,Ar,C7440371,argon,150.86,48.9805,13.41,0.07457121551081282,1.8000000000000003,6.942354610508264,0.00088046037
271.55,341.67,15282.0,6.5437e-05,1.2124,3.4482,97.828,14.473,35.781,443.99,0.063595,41.124,0.03985,supercritical,Ar,C7440371,argon,150.86,48.9805,13.41,0.07457121551081282,1.8000000000000003,6.975633160135156,0.0008775101700000002
271.55,343.3,15333.0,6.5219e-05,1.2056,3.4445,97.775,14.478,35.775,445.0,0.062723,41.248,0.039971,supercritical,Ar,C7440371,argon,150.86,48.9805,13.41,0.07457121551081282,1.8000000000000003,7.008911709762049,0.0008745867900000001
271.55,344.93,15384.0,6.5003e-05,1.1987,3.4409,97.723,14.482,35.77,446.02,0.06186,41.372,0.040091,supercritical,Ar,C7440371,argon,150.86,48.9805,13.41,0.07457121551081282,1.8000000000000003,7.042190259388941,0.0008716902300000001
271.55,346.56,15434.0,6.4791e-05,1.1919,3.4373,97.671,14.486,35.764,447.03,0.061004,41.496,0.040211,supercritical,Ar,C7440371,argon,150.86,48.9805,13.41,0.07457121551081282,1.8000000000000003,7.075468809015833,0.00086884731
271.55,348.19,15485.0,6.458e-05,1.1852,3.4338,97.619,14.491,35.758,448.04,0.060155,41.619,0.04033,supercritical,Ar,C7440371,argon,150.86,48.9805,13.41,0.07457121551081282,1.8000000000000003,7.1087473586427254,0.0008660178
271.55,349.82,15535.0,6.4372e-05,1.1784,3.4303,97.568,14.495,35.752,449.05,0.059314,41.742,0.04045,supercritical,Ar,C7440371,argon,150.86,48.9805,13.41,0.07457121551081282,1.8000000000000003,7.142025908269617,0.00086322852
271.55,351.45,15584.0,6.4167e-05,1.1717,3.4269,97.516,14.499,35.745,450.06,0.058481,41.865,0.040569,supercritical,Ar,C7440371,argon,150.86,48.9805,13.41,0.07457121551081282,1.8000000000000003,7.17530445789651,0.00086047947
271.55,353.08,15634.0,6.3963e-05,1.1651,3.4235,97.465,14.504,35.738,451.07,0.057654,41.988,0.040687,supercritical,Ar,C7440371,argon,150.86,48.9805,13.41,0.07457121551081282,1.8000000000000003,7.208583007523402,0.00085774383
271.55,354.71,15683.0,6.3762e-05,1.1585,3.4202,97.415,14.508,35.731,452.08,0.056835,42.111,0.040806,supercritical,Ar,C7440371,argon,150.86,48.9805,13.41,0.07457121551081282,1.8000000000000003,7.241861557150294,0.0008550484200000001
271.55,356.34,15732.0,6.3563e-05,1.1519,3.4169,97.364,14.512,35.723,453.09,0.056024,42.234,0.040924,supercritical,Ar,C7440371,argon,150.86,48.9805,13.41,0.07457121551081282,1.8000000000000003,7.275140106777187,0.00085237983
271.55,357.97,15781.0,6.3367e-05,1.1453,3.4136,97.314,14.517,35.716,454.1,0.055219,42.356,0.041043,supercritical,Ar,C7440371,argon,150.86,48.9805,13.41,0.07457121551081282,1.8000000000000003,7.30841865640408,0.0008497514700000001
271.55,359.6,15830.0,6.3172e-05,1.1388,3.4104,97.265,14.521,35.708,455.11,0.054421,42.478,0.04116,supercritical,Ar,C7440371,argon,150.86,48.9805,13.41,0.07457121551081282,1.8000000000000003,7.341697206030972,0.00084713652
271.55,361.23,15878.0,6.298e-05,1.1323,3.4073,97.215,14.525,35.7,456.12,0.053631,42.6,0.041278,supercritical,Ar,C7440371,argon,150.86,48.9805,13.41,0.07457121551081282,1.8000000000000003,7.374975755657864,0.0008445618
271.55,362.86,15926.0,6.279e-05,1.1258,3.4042,97.166,14.529,35.691,457.13,0.052847,42.722,0.041395,supercritical,Ar,C7440371,argon,150.86,48.9805,13.41,0.07457121551081282,1.8000000000000003,7.408254305284757,0.0008420139
271.55,364.49,15974.0,6.2602e-05,1.1194,3.4012,97.117,14.534,35.682,458.13,0.05207,42.844,0.041513,supercritical,Ar,C7440371,argon,150.86,48.9805,13.41,0.07457121551081282,1.8000000000000003,7.441532854911649,0.00083949282
271.55,366.12,16022.0,6.2416e-05,1.113,3.3981,97.069,14.538,35.674,459.14,0.0513,42.965,0.041629,supercritical,Ar,C7440371,argon,150.86,48.9805,13.41,0.07457121551081282,1.8000000000000003,7.474811404538541,0.00083699856
271.55,367.75,16069.0,6.2232e-05,1.1066,3.3952,97.02,14.542,35.664,460.14,0.050537,43.087,0.041746,supercritical,Ar,C7440371,argon,150.86,48.9805,13.41,0.07457121551081282,1.8000000000000003,7.508089954165433,0.0008345311200000001
271.55,369.38,16116.0,6.205e-05,1.1003,3.3923,96.972,14.546,35.655,461.15,0.04978,43.208,0.041862,supercritical,Ar,C7440371,argon,150.86,48.9805,13.41,0.07457121551081282,1.8000000000000003,7.5413685037923255,0.0008320905000000001
271.55,371.01,16163.0,6.187e-05,1.094,3.3894,96.925,14.55,35.646,462.15,0.04903,43.329,0.041979,supercritical,Ar,C7440371,argon,150.86,48.9805,13.41,0.07457121551081282,1.8000000000000003,7.574647053419218,0.0008296767000000001
271.55,372.64,16210.0,6.1692e-05,1.0877,3.3866,96.877,14.555,35.636,463.15,0.048286,43.45,0.042094,supercritical,Ar,C7440371,argon,150.86,48.9805,13.41,0.07457121551081282,1.8000000000000003,7.60792560304611,0.0008272897200000002
271.55,374.27,16256.0,6.1515e-05,1.0815,3.3838,96.83,14.559,35.626,464.15,0.047549,43.57,0.04221,supercritical,Ar,C7440371,argon,150.86,48.9805,13.41,0.07457121551081282,1.8000000000000003,7.641204152673002,0.00082491615
271.55,375.9,16302.0,6.1341e-05,1.0753,3.381,96.783,14.563,35.616,465.15,0.046818,43.691,0.042325,supercritical,Ar,C7440371,argon,150.86,48.9805,13.41,0.07457121551081282,1.8000000000000003,7.674482702299895,0.00082258281
271.55,377.53,16348.0,6.1168e-05,1.0691,3.3784,96.736,14.567,35.606,466.15,0.046094,43.811,0.042441,supercritical,Ar,C7440371,argon,150.86,48.9805,13.41,0.07457121551081282,1.8000000000000003,7.707761251926787,0.00082026288
271.55,379.16,16394.0,6.0997e-05,1.0629,3.3757,96.69,14.571,35.595,467.15,0.045376,43.931,0.042555,supercritical,Ar,C7440371,argon,150.86,48.9805,13.41,0.07457121551081282,1.8000000000000003,7.74103980155368,0.0008179697700000001
271.55,380.79,16440.0,6.0828e-05,1.0568,3.3731,96.644,14.576,35.585,468.15,0.044664,44.051,0.04267,supercritical,Ar,C7440371,argon,150.86,48.9805,13.41,0.07457121551081282,1.8000000000000003,7.774318351180573,0.0008157034800000001
271.55,382.42,16485.0,6.0661e-05,1.0507,3.3705,96.598,14.58,35.574,469.15,0.043958,44.171,0.042784,supercritical,Ar,C7440371,argon,150.86,48.9805,13.41,0.07457121551081282,1.8000000000000003,7.807596900807464,0.0008134640100000001
271.55,384.05,16530.0,6.0495e-05,1.0447,3.368,96.552,14.584,35.563,470.14,0.043259,44.29,0.042898,supercritical,Ar,C7440371,argon,150.86,48.9805,13.41,0.07457121551081282,1.8000000000000003,7.840875450434357,0.0008112379500000001
271.55,385.68,16575.0,6.0331e-05,1.0386,3.3655,96.507,14.588,35.552,471.14,0.042565,44.409,0.043012,supercritical,Ar,C7440371,argon,150.86,48.9805,13.41,0.07457121551081282,1.8000000000000003,7.8741540000612495,0.0008090387100000001
271.55,387.31,16620.0,6.0169e-05,1.0326,3.3631,96.461,14.592,35.541,472.13,0.041877,44.529,0.043126,supercritical,Ar,C7440371,argon,150.86,48.9805,13.41,0.07457121551081282,1.8000000000000003,7.907432549688141,0.0008068662900000001
271.55,388.94,16664.0,6.0009e-05,1.0267,3.3606,96.416,14.596,35.529,473.13,0.041195,44.648,0.043239,supercritical,Ar,C7440371,argon,150.86,48.9805,13.41,0.07457121551081282,1.8000000000000003,7.940711099315034,0.00080472069
271.55,390.57,16709.0,5.985e-05,1.0207,3.3583,96.372,14.6,35.518,474.12,0.04052,44.767,0.043352,supercritical,Ar,C7440371,argon,150.86,48.9805,13.41,0.07457121551081282,1.8000000000000003,7.9739896489419255,0.0008025885000000001
271.55,392.2,16753.0,5.9692e-05,1.0148,3.356,96.327,14.604,35.506,475.11,0.039849,44.885,0.043465,supercritical,Ar,C7440371,argon,150.86,48.9805,13.41,0.07457121551081282,1.8000000000000003,8.007268198568818,0.00080046972
271.55,393.83,16796.0,5.9536e-05,1.0089,3.3537,96.283,14.609,35.494,476.1,0.039185,45.004,0.043578,supercritical,Ar,C7440371,argon,150.86,48.9805,13.41,0.07457121551081282,1.8000000000000003,8.04054674819571,0.0007983777600000001
271.55,395.46,16840.0,5.9382e-05,1.0031,3.3514,96.239,14.613,35.482,477.09,0.038526,45.122,0.04369,supercritical,Ar,C7440371,argon,150.86,48.9805,13.41,0.07457121551081282,1.8000000000000003,8.073825297822603,0.0007963126200000001
271.55,397.09,16883.0,5.9229e-05,0.99727,3.3492,96.195,14.617,35.47,478.08,0.037873,45.24,0.043802,supercritical,Ar,C7440371,argon,150.86,48.9805,13.41,0.07457121551081282,1.8000000000000003,8.107103847449494,0.0007942608900000001
271.55,398.72,16927.0,5.9078e-05,0.99148,3.347,96.152,14.621,35.458,479.06,0.037226,45.358,0.043914,supercritical,Ar,C7440371,argon,150.86,48.9805,13.41,0.07457121551081282,1.8000000000000003,8.140382397076388,0.0007922359800000001
271.55,400.35,16970.0,5.8928e-05,0.98571,3.3449,96.109,14.625,35.446,480.05,0.036584,45.476,0.044026,supercritical,Ar,C7440371,argon,150.86,48.9805,13.41,0.07457121551081282,1.8000000000000003,8.173660946703281,0.0007902244800000001
271.55,401.98,17013.0,5.878e-05,0.97997,3.3428,96.066,14.629,35.434,481.03,0.035947,45.594,0.044137,supercritical,Ar,C7440371,argon,150.86,48.9805,13.41,0.07457121551081282,1.8000000000000003,8.206939496330172,0.0007882398000000001
271.55,403.61,17055.0,5.8633e-05,0.97426,3.3408,96.023,14.633,35.421,482.01,0.035316,45.712,0.044248,supercritical,Ar,C7440371,argon,150.86,48.9805,13.41,0.07457121551081282,1.8000000000000003,8.240218045957064,0.0007862685300000001
271.55,405.24,17098.0,5.8488e-05,0.96858,3.3387,95.98,14.637,35.409,483.0,0.03469,45.829,0.044359,supercritical,Ar,C7440371,argon,150.86,48.9805,13.41,0.07457121551081282,1.8000000000000003,8.273496595583957,0.0007843240800000001
271.55,406.87,17140.0,5.8344e-05,0.96292,3.3368,95.938,14.641,35.396,483.98,0.034069,45.946,0.04447,supercritical,Ar,C7440371,argon,150.86,48.9805,13.41,0.07457121551081282,1.8000000000000003,8.30677514521085,0.0007823930400000001
271.55,408.5,17182.0,5.8201e-05,0.95729,3.3348,95.896,14.645,35.383,484.96,0.033454,46.063,0.04458,supercritical,Ar,C7440371,argon,150.86,48.9805,13.41,0.07457121551081282,1.8000000000000003,8.340053694837742,0.0007804754100000001
271.55,410.13,17224.0,5.806e-05,0.95169,3.3329,95.854,14.649,35.37,485.93,0.032844,46.18,0.04469,supercritical,Ar,C7440371,argon,150.86,48.9805,13.41,0.07457121551081282,1.8000000000000003,8.373332244464635,0.0007785846000000001
271.55,411.76,17265.0,5.792e-05,0.94611,3.331,95.812,14.654,35.358,486.91,0.032239,46.297,0.0448,supercritical,Ar,C7440371,argon,150.86,48.9805,13.41,0.07457121551081282,1.8000000000000003,8.406610794091526,0.0007767072000000001
271.55,413.39,17307.0,5.7781e-05,0.94056,3.3292,95.77,14.658,35.345,487.89,0.031639,46.414,0.04491,supercritical,Ar,C7440371,argon,150.86,48.9805,13.41,0.07457121551081282,1.8000000000000003,8.439889343718418,0.0007748432100000001
271.55,415.02,17348.0,5.7644e-05,0.93504,3.3274,95.729,14.662,35.332,488.86,0.031044,46.53,0.045019,supercritical,Ar,C7440371,argon,150.86,48.9805,13.41,0.07457121551081282,1.8000000000000003,8.47316789334531,0.0007730060400000001
271.55,416.65,17389.0,5.7508e-05,0.92954,3.3256,95.688,14.666,35.318,489.84,0.030454,46.647,0.045129,supercritical,Ar,C7440371,argon,150.86,48.9805,13.41,0.07457121551081282,1.8000000000000003,8.506446442972203,0.0007711822800000001
271.55,418.28,17430.0,5.7373e-05,0.92407,3.3239,95.647,14.67,35.305,490.81,0.029869,46.763,0.045238,supercritical,Ar,C7440371,argon,150.86,48.9805,13.41,0.07457121551081282,1.8000000000000003,8.539724992599096,0.0007693719300000001
271.55,419.91,17470.0,5.7239e-05,0.91862,3.3222,95.607,14.674,35.292,491.78,0.029289,46.879,0.045346,supercritical,Ar,C7440371,argon,150.86,48.9805,13.41,0.07457121551081282,1.8000000000000003,8.573003542225988,0.0007675749900000001
271.55,421.54,17511.0,5.7107e-05,0.91321,3.3205,95.566,14.678,35.279,492.75,0.028714,46.995,0.045455,supercritical,Ar,C7440371,argon,150.86,48.9805,13.41,0.07457121551081282,1.8000000000000003,8.606282091852881,0.0007658048700000001
271.55,423.17,17551.0,5.6976e-05,0.90781,3.3189,95.526,14.682,35.265,493.72,0.028143,47.111,0.045563,supercritical,Ar,C7440371,argon,150.86,48.9805,13.41,0.07457121551081282,1.8000000000000003,8.639560641479774,0.00076404816