Temperature (K),Pressure (bar),Density (mol/m3),Volume (m3/mol),Internal Energy (kJ/mol),Enthalpy (kJ/mol),Entropy (J/mol*K),Cv (J/mol*K),Cp (J/mol*K),Sound Spd. (m/s),Joule-Thomson (K/bar),Viscosity (uPa*s),Therm. Cond. (W/m*K),Phase,substance,substance_id,substance_name,Tc,Pc,rhoc,Vmc,Tr,Pr,Vmr
278.24,1.0,43.264,0.023114,5.7758,8.0871,203.1,20.985,29.349,317.7,0.30644,19.434,0.024758,vapor,O2,C7782447,oxygen,154.58,50.43,13.6,0.07352941176470588,1.8,0.019829466587348802,0.3143504
278.24,2.365,102.44,0.0097615,5.7663,8.0749,195.91,20.998,29.431,317.67,0.3057,19.464,0.024825,vapor,O2,C7782447,oxygen,154.58,50.43,13.6,0.07352941176470588,1.8,0.04689668847907992,0.1327564
278.24,3.73,161.76,0.0061818,5.7568,8.0626,192.09,21.01,29.513,317.63,0.30494,19.494,0.024892,vapor,O2,C7782447,oxygen,154.58,50.43,13.6,0.07352941176470588,1.8,0.07396391037081103,0.08407248
278.24,5.095,221.23,0.0045203,5.7472,8.0503,189.46,21.023,29.595,317.6,0.30417,19.525,0.024959,vapor,O2,C7782447,oxygen,154.58,50.43,13.6,0.07352941176470588,1.8,0.10103113226254214,0.061476079999999995
278.24,6.46,280.83,0.0035609,5.7377,8.038,187.45,21.036,29.678,317.57,0.3034,19.555,0.025026,vapor,O2,C7782447,oxygen,154.58,50.43,13.6,0.07352941176470588,1.8,0.12809835415427326,0.04842824
278.24,7.825,340.57,0.0029362,5.7281,8.0257,185.82,21.049,29.762,317.54,0.30262,19.586,0.025093,vapor,O2,C7782447,oxygen,154.58,50.43,13.6,0.07352941176470588,1.8,0.15516557604600437,0.03993232
278.24,9.19,400.46,0.0024971,5.7186,8.0134,184.45,21.062,29.846,317.52,0.30183,19.617,0.025161,vapor,O2,C7782447,oxygen,154.58,50.43,13.6,0.07352941176470588,1.8,0.18223279793773547,0.03396056
278.24,10.555,460.48,0.0021716,5.709,8.0011,183.27,21.075,29.93,317.5,0.30103,19.647,0.025229,vapor,O2,C7782447,oxygen,154.58,50.43,13.6,0.07352941176470588,1.8,0.20930001982946658,0.02953376
278.24,11.92,520.65,0.0019207,5.6994,7.9888,182.22,21.088,30.015,317.49,0.30023,19.678,0.025297,vapor,O2,C7782447,oxygen,154.58,50.43,13.6,0.07352941176470588,1.8,0.2363672417211977,0.02612152
278.24,13.285,580.95,0.0017213,5.6898,7.9765,181.29,21.101,30.1,317.47,0.29942,19.709,0.025365,vapor,O2,C7782447,oxygen,154.58,50.43,13.6,0.07352941176470588,1.8,0.2634344636129288,0.02340968
278.24,14.65,641.4,0.0015591,5.6801,7.9642,180.44,21.114,30.185,317.46,0.29859,19.741,0.025433,vapor,O2,C7782447,oxygen,154.58,50.43,13.6,0.07352941176470588,1.8,0.29050168550465993,0.02120376
278.24,16.015,701.98,0.0014245,5.6705,7.9519,179.66,21.127,30.271,317.45,0.29776,19.772,0.025502,vapor,O2,C7782447,oxygen,154.58,50.43,13.6,0.07352941176470588,1.8,0.31756890739639104,0.0193732
278.24,17.38,762.7,0.0013111,5.6609,7.9396,178.95,21.139,30.357,317.45,0.29693,19.803,0.025571,vapor,O2,C7782447,oxygen,154.58,50.43,13.6,0.07352941176470588,1.8,0.34463612928812215,0.01783096
278.24,18.745,823.56,0.0012142,5.6512,7.9273,178.29,21.152,30.444,317.45,0.29608,19.835,0.02564,vapor,O2,C7782447,oxygen,154.58,50.43,13.6,0.07352941176470588,1.8,0.37170335117985326,0.01651312
278.24,20.11,884.55,0.0011305,5.6415,7.915,177.67,21.165,30.531,317.45,0.29523,19.867,0.02571,vapor,O2,C7782447,oxygen,154.58,50.43,13.6,0.07352941176470588,1.8,0.39877057307158437,0.0153748
278.24,21.475,945.68,0.0010574,5.6318,7.9027,177.09,21.178,30.619,317.46,0.29436,19.898,0.02578,vapor,O2,C7782447,oxygen,154.58,50.43,13.6,0.07352941176470588,1.8,0.42583779496331553,0.01438064
278.24,22.84,1006.9,0.0009931,5.6221,7.8904,176.54,21.191,30.707,317.47,0.29349,19.93,0.02585,vapor,O2,C7782447,oxygen,154.58,50.43,13.6,0.07352941176470588,1.8,0.4529050168550466,0.01350616
278.24,24.205,1068.3,0.00093603,5.6124,7.8781,176.02,21.203,30.795,317.48,0.29261,19.963,0.02592,vapor,O2,C7782447,oxygen,154.58,50.43,13.6,0.07352941176470588,1.8,0.4799722387467777,0.012730008
278.24,25.57,1129.9,0.00088505,5.6027,7.8658,175.53,21.216,30.884,317.5,0.29173,19.995,0.025991,vapor,O2,C7782447,oxygen,154.58,50.43,13.6,0.07352941176470588,1.8,0.5070394606385088,0.01203668
278.24,26.935,1191.5,0.00083925,5.593,7.8535,175.07,21.229,30.973,317.52,0.29083,20.028,0.026062,vapor,O2,C7782447,oxygen,154.58,50.43,13.6,0.07352941176470588,1.8,0.53410668253024,0.0114138
278.24,28.3,1253.3,0.00079787,5.5832,7.8412,174.62,21.241,31.063,317.54,0.28993,20.06,0.026133,vapor,O2,C7782447,oxygen,154.58,50.43,13.6,0.07352941176470588,1.8,0.561173904421971,0.010851032
278.24,29.665,1315.3,0.0007603,5.5735,7.8289,174.19,21.254,31.152,317.57,0.28902,20.093,0.026204,vapor,O2,C7782447,oxygen,154.58,50.43,13.6,0.07352941176470588,1.8,0.5882411263137022,0.01034008
278.24,31.03,1377.3,0.00072604,5.5637,7.8166,173.78,21.267,31.243,317.6,0.2881,20.126,0.026276,vapor,O2,C7782447,oxygen,154.58,50.43,13.6,0.07352941176470588,1.8,0.6153083482054333,0.009874144
278.24,32.395,1439.5,0.00069467,5.5539,7.8043,173.39,21.279,31.333,317.64,0.28718,20.16,0.026348,vapor,O2,C7782447,oxygen,154.58,50.43,13.6,0.07352941176470588,1.8,0.6423755700971645,0.009447512
278.24,33.76,1501.8,0.00066585,5.5442,7.7921,173.01,21.292,31.424,317.68,0.28625,20.193,0.026421,vapor,O2,C7782447,oxygen,154.58,50.43,13.6,0.07352941176470588,1.8,0.6694427919888954,0.009055559999999999
278.24,35.125,1564.3,0.00063927,5.5344,7.7798,172.65,21.305,31.515,317.72,0.28531,20.227,0.026493,vapor,O2,C7782447,oxygen,154.58,50.43,13.6,0.07352941176470588,1.8,0.6965100138806266,0.008694072
278.24,36.49,1626.9,0.00061468,5.5246,7.7675,172.3,21.317,31.607,317.77,0.28436,20.261,0.026566,vapor,O2,C7782447,oxygen,154.58,50.43,13.6,0.07352941176470588,1.8,0.7235772357723578,0.008359648
278.24,37.855,1689.6,0.00059187,5.5147,7.7553,171.96,21.33,31.699,317.82,0.2834,20.295,0.02664,vapor,O2,C7782447,oxygen,154.58,50.43,13.6,0.07352941176470588,1.8,0.7506444576640888,0.008049431999999999
278.24,39.22,1752.4,0.00057065,5.5049,7.743,171.63,21.342,31.791,317.87,0.28244,20.329,0.026713,vapor,O2,C7782447,oxygen,154.58,50.43,13.6,0.07352941176470588,1.8,0.7777116795558199,0.00776084
278.24,40.585,1815.3,0.00055086,5.4951,7.7307,171.31,21.355,31.884,317.93,0.28147,20.364,0.026787,vapor,O2,C7782447,oxygen,154.58,50.43,13.6,0.07352941176470588,1.8,0.804778901447551,0.007491696
278.24,41.95,1878.4,0.00053237,5.4852,7.7185,171.0,21.367,31.977,317.99,0.28049,20.398,0.026862,vapor,O2,C7782447,oxygen,154.58,50.43,13.6,0.07352941176470588,1.8,0.8318461233392822,0.007240232
278.24,43.315,1941.6,0.00051504,5.4754,7.7063,170.7,21.38,32.07,318.06,0.2795,20.433,0.026937,vapor,O2,C7782447,oxygen,154.58,50.43,13.6,0.07352941176470588,1.8,0.8589133452310133,0.007004544000000001
278.24,44.68,2004.9,0.00049877,5.4655,7.694,170.41,21.392,32.163,318.13,0.27851,20.469,0.027012,vapor,O2,C7782447,oxygen,154.58,50.43,13.6,0.07352941176470588,1.8,0.8859805671227444,0.006783272000000001
278.24,46.045,2068.3,0.00048348,5.4556,7.6818,170.12,21.404,32.257,318.21,0.27751,20.504,0.027087,vapor,O2,C7782447,oxygen,154.58,50.43,13.6,0.07352941176470588,1.8,0.9130477890144756,0.006575328
278.24,47.41,2131.9,0.00046907,5.4457,7.6696,169.85,21.417,32.351,318.28,0.2765,20.54,0.027163,vapor,O2,C7782447,oxygen,154.58,50.43,13.6,0.07352941176470588,1.8,0.9401150109062065,0.006379352
278.24,48.775,2195.6,0.00045546,5.4358,7.6574,169.57,21.429,32.446,318.37,0.27549,20.576,0.027239,vapor,O2,C7782447,oxygen,154.58,50.43,13.6,0.07352941176470588,1.8,0.9671822327979377,0.0061942559999999995
278.24,50.14,2259.3,0.00044261,5.4259,7.6452,169.31,21.441,32.54,318.46,0.27447,20.613,0.027315,vapor,O2,C7782447,oxygen,154.58,50.43,13.6,0.07352941176470588,1.8,0.9942494546896689,0.006019496
278.24,51.505,2323.2,0.00043043,5.416,7.633,169.05,21.454,32.635,318.55,0.27344,20.649,0.027392,vapor,O2,C7782447,oxygen,154.58,50.43,13.6,0.07352941176470588,1.8,1.0213166765814,0.005853847999999999
278.24,51.505,2323.2,0.00043043,5.416,7.633,169.05,21.454,32.635,318.55,0.27344,20.649,0.027392,supercritical,O2,C7782447,oxygen,154.58,50.43,13.6,0.07352941176470588,1.8,1.0213166765814,0.005853847999999999
278.24,52.87,2387.2,0.00041889,5.4061,7.6208,168.8,21.466,32.731,318.64,0.27241,20.686,0.02747,supercritical,O2,C7782447,oxygen,154.58,50.43,13.6,0.07352941176470588,1.8,1.048383898473131,0.005696904
278.24,54.235,2451.4,0.00040794,5.3962,7.6087,168.55,21.478,32.826,318.74,0.27137,20.723,0.027547,supercritical,O2,C7782447,oxygen,154.58,50.43,13.6,0.07352941176470588,1.8,1.0754511203648622,0.005547984
278.24,55.6,2515.6,0.00039752,5.3863,7.5965,168.31,21.49,32.922,318.85,0.27032,20.761,0.027625,supercritical,O2,C7782447,oxygen,154.58,50.43,13.6,0.07352941176470588,1.8,1.1025183422565934,0.005406272
278.24,56.965,2579.9,0.00038761,5.3763,7.5844,168.08,21.502,33.018,318.96,0.26926,20.799,0.027704,supercritical,O2,C7782447,oxygen,154.58,50.43,13.6,0.07352941176470588,1.8,1.1295855641483246,0.005271496
278.24,58.33,2644.4,0.00037816,5.3664,7.5722,167.85,21.514,33.114,319.07,0.2682,20.837,0.027782,supercritical,O2,C7782447,oxygen,154.58,50.43,13.6,0.07352941176470588,1.8,1.1566527860400555,0.005142976
278.24,59.695,2708.9,0.00036915,5.3565,7.5601,167.62,21.526,33.21,319.19,0.26713,20.875,0.027862,supercritical,O2,C7782447,oxygen,154.58,50.43,13.6,0.07352941176470588,1.8,1.1837200079317867,0.00502044
278.24,61.06,2773.5,0.00036055,5.3465,7.548,167.4,21.538,33.307,319.31,0.26606,20.914,0.027941,supercritical,O2,C7782447,oxygen,154.58,50.43,13.6,0.07352941176470588,1.8,1.2107872298235178,0.00490348
278.24,62.425,2838.3,0.00035232,5.3365,7.5359,167.18,21.55,33.403,319.44,0.26498,20.953,0.028021,supercritical,O2,C7782447,oxygen,154.58,50.43,13.6,0.07352941176470588,1.8,1.2378544517152488,0.004791551999999999
278.24,63.79,2903.1,0.00034445,5.3266,7.5238,166.96,21.562,33.5,319.57,0.2639,20.992,0.028102,supercritical,O2,C7782447,oxygen,154.58,50.43,13.6,0.07352941176470588,1.8,1.26492167360698,0.00468452
278.24,65.155,2968.1,0.00033692,5.3166,7.5118,166.75,21.574,33.597,319.71,0.2628,21.032,0.028183,supercritical,O2,C7782447,oxygen,154.58,50.43,13.6,0.07352941176470588,1.8,1.291988895498711,0.004582112
278.24,66.52,3033.1,0.00032969,5.3066,7.4997,166.55,21.586,33.694,319.85,0.26171,21.072,0.028264,supercritical,O2,C7782447,oxygen,154.58,50.43,13.6,0.07352941176470588,1.8,1.319056117390442,0.004483784
278.24,67.885,3098.3,0.00032276,5.2966,7.4877,166.34,21.598,33.792,319.99,0.2606,21.113,0.028346,supercritical,O2,C7782447,oxygen,154.58,50.43,13.6,0.07352941176470588,1.8,1.3461233392821734,0.004389536
278.24,69.25,3163.5,0.00031611,5.2867,7.4757,166.14,21.61,33.889,320.15,0.25949,21.153,0.028428,supercritical,O2,C7782447,oxygen,154.58,50.43,13.6,0.07352941176470588,1.8,1.3731905611739044,0.004299096
278.24,70.615,3228.8,0.00030971,5.2767,7.4637,165.95,21.622,33.987,320.3,0.25838,21.194,0.02851,supercritical,O2,C7782447,oxygen,154.58,50.43,13.6,0.07352941176470588,1.8,1.4002577830656355,0.004212056
278.24,71.98,3294.2,0.00030356,5.2667,7.4517,165.75,21.633,34.085,320.46,0.25726,21.236,0.028593,supercritical,O2,C7782447,oxygen,154.58,50.43,13.6,0.07352941176470588,1.8,1.4273250049573667,0.004128415999999999
278.24,73.345,3359.7,0.00029765,5.2567,7.4398,165.56,21.645,34.183,320.63,0.25613,21.278,0.028677,supercritical,O2,C7782447,oxygen,154.58,50.43,13.6,0.07352941176470588,1.8,1.4543922268490976,0.00404804
278.24,74.71,3425.3,0.00029195,5.2467,7.4278,165.37,21.657,34.281,320.8,0.255,21.32,0.028761,supercritical,O2,C7782447,oxygen,154.58,50.43,13.6,0.07352941176470588,1.8,1.4814594487408288,0.00397052
278.24,76.075,3490.9,0.00028646,5.2367,7.4159,165.19,21.668,34.379,320.97,0.25386,21.363,0.028845,supercritical,O2,C7782447,oxygen,154.58,50.43,13.6,0.07352941176470588,1.8,1.50852667063256,0.0038958559999999996
278.24,77.44,3556.7,0.00028116,5.2267,7.404,165.01,21.68,34.477,321.15,0.25272,21.406,0.02893,supercritical,O2,C7782447,oxygen,154.58,50.43,13.6,0.07352941176470588,1.8,1.5355938925242911,0.003823776
278.24,78.805,3622.5,0.00027606,5.2167,7.3921,164.83,21.691,34.575,321.33,0.25157,21.449,0.029015,supercritical,O2,C7782447,oxygen,154.58,50.43,13.6,0.07352941176470588,1.8,1.5626611144160223,0.003754416
278.24,80.17,3688.4,0.00027112,5.2067,7.3803,164.65,21.703,34.673,321.52,0.25042,21.493,0.029101,supercritical,O2,C7782447,oxygen,154.58,50.43,13.6,0.07352941176470588,1.8,1.5897283363077535,0.0036872320000000004
278.24,81.535,3754.3,0.00026636,5.1966,7.3684,164.48,21.714,34.772,321.72,0.24927,21.537,0.029187,supercritical,O2,C7782447,oxygen,154.58,50.43,13.6,0.07352941176470588,1.8,1.6167955581994844,0.003622496
278.24,82.9,3820.4,0.00026176,5.1866,7.3566,164.31,21.725,34.87,321.92,0.24811,21.581,0.029274,supercritical,O2,C7782447,oxygen,154.58,50.43,13.6,0.07352941176470588,1.8,1.6438627800912156,0.0035599359999999997
278.24,84.265,3886.5,0.0002573,5.1766,7.3448,164.14,21.737,34.969,322.12,0.24694,21.626,0.029361,supercritical,O2,C7782447,oxygen,154.58,50.43,13.6,0.07352941176470588,1.8,1.6709300019829467,0.00349928
278.24,85.63,3952.6,0.000253,5.1666,7.333,163.97,21.748,35.067,322.33,0.24577,21.672,0.029449,supercritical,O2,C7782447,oxygen,154.58,50.43,13.6,0.07352941176470588,1.8,1.6979972238746777,0.0034408000000000004
278.24,86.995,4018.9,0.00024883,5.1566,7.3213,163.8,21.759,35.165,322.55,0.2446,21.717,0.029537,supercritical,O2,C7782447,oxygen,154.58,50.43,13.6,0.07352941176470588,1.8,1.725064445766409,0.003384088
278.24,88.36,4085.2,0.00024479,5.1466,7.3095,163.64,21.77,35.264,322.76,0.24342,21.764,0.029625,supercritical,O2,C7782447,oxygen,154.58,50.43,13.6,0.07352941176470588,1.8,1.75213166765814,0.0033291439999999996
278.24,89.725,4151.5,0.00024088,5.1366,7.2978,163.48,21.782,35.362,322.99,0.24223,21.81,0.029714,supercritical,O2,C7782447,oxygen,154.58,50.43,13.6,0.07352941176470588,1.8,1.779198889549871,0.003275968
278.24,91.09,4217.9,0.00023708,5.1266,7.2862,163.32,21.793,35.46,323.22,0.24105,21.857,0.029804,supercritical,O2,C7782447,oxygen,154.58,50.43,13.6,0.07352941176470588,1.8,1.8062661114416023,0.003224288
278.24,92.455,4284.4,0.00023341,5.1165,7.2745,163.16,21.804,35.558,323.45,0.23986,21.905,0.029894,supercritical,O2,C7782447,oxygen,154.58,50.43,13.6,0.07352941176470588,1.8,1.8333333333333333,0.003174376
278.24,93.82,4350.9,0.00022984,5.1065,7.2629,163.01,21.815,35.657,323.69,0.23866,21.953,0.029984,supercritical,O2,C7782447,oxygen,154.58,50.43,13.6,0.07352941176470588,1.8,1.8604005552250644,0.003125824
278.24,95.185,4417.5,0.00022637,5.0965,7.2513,162.85,21.826,35.755,323.94,0.23747,22.001,0.030075,supercritical,O2,C7782447,oxygen,154.58,50.43,13.6,0.07352941176470588,1.8,1.8874677771167956,0.0030786319999999995
278.24,96.55,4484.1,0.00022301,5.0865,7.2397,162.7,21.837,35.853,324.19,0.23627,22.05,0.030167,supercritical,O2,C7782447,oxygen,154.58,50.43,13.6,0.07352941176470588,1.8,1.9145349990085265,0.003032936
278.24,97.915,4550.8,0.00021974,5.0765,7.2281,162.55,21.847,35.95,324.45,0.23506,22.099,0.030259,supercritical,O2,C7782447,oxygen,154.58,50.43,13.6,0.07352941176470588,1.8,1.941602220900258,0.002988464
278.24,99.28,4617.5,0.00021657,5.0665,7.2166,162.4,21.858,36.048,324.71,0.23385,22.149,0.030351,supercritical,O2,C7782447,oxygen,154.58,50.43,13.6,0.07352941176470588,1.8,1.9686694427919889,0.002945352
278.24,100.64,4684.2,0.00021348,5.0565,7.2051,162.26,21.869,36.146,324.97,0.23264,22.199,0.030444,supercritical,O2,C7782447,oxygen,154.58,50.43,13.6,0.07352941176470588,1.8,1.9956375173507832,0.0029033279999999997
278.24,102.01,4751.0,0.00021048,5.0465,7.1937,162.11,21.88,36.243,325.24,0.23143,22.249,0.030538,supercritical,O2,C7782447,oxygen,154.58,50.43,13.6,0.07352941176470588,1.8,2.0228038865754514,0.002862528
278.24,103.38,4817.8,0.00020756,5.0365,7.1822,161.97,21.89,36.341,325.52,0.23021,22.3,0.030632,supercritical,O2,C7782447,oxygen,154.58,50.43,13.6,0.07352941176470588,1.8,2.049970255800119,0.0028228159999999997
278.24,104.74,4884.7,0.00020472,5.0266,7.1708,161.82,21.901,36.438,325.8,0.22899,22.352,0.030726,supercritical,O2,C7782447,oxygen,154.58,50.43,13.6,0.07352941176470588,1.8,2.0769383303589133,0.002784192
278.24,106.11,4951.5,0.00020196,5.0166,7.1595,161.68,21.911,36.535,326.09,0.22777,22.404,0.030821,supercritical,O2,C7782447,oxygen,154.58,50.43,13.6,0.07352941176470588,1.8,2.1041046995835813,0.0027466559999999997
278.24,107.47,5018.4,0.00019927,5.0066,7.1481,161.55,21.922,36.631,326.38,0.22655,22.456,0.030917,supercritical,O2,C7782447,oxygen,154.58,50.43,13.6,0.07352941176470588,1.8,2.1310727741423756,0.002710072
278.24,108.83,5085.4,0.00019664,4.9966,7.1368,161.41,21.932,36.728,326.68,0.22532,22.509,0.031013,supercritical,O2,C7782447,oxygen,154.58,50.43,13.6,0.07352941176470588,1.8,2.15804084870117,0.0026743039999999997
278.24,110.2,5152.3,0.00019409,4.9867,7.1255,161.27,21.943,36.824,326.98,0.22409,22.562,0.031109,supercritical,O2,C7782447,oxygen,154.58,50.43,13.6,0.07352941176470588,1.8,2.185207217925838,0.002639624
278.24,111.56,5219.3,0.0001916,4.9767,7.1143,161.14,21.953,36.92,327.29,0.22286,22.616,0.031206,supercritical,O2,C7782447,oxygen,154.58,50.43,13.6,0.07352941176470588,1.8,2.2121752924846323,0.00260576
278.24,112.93,5286.3,0.00018917,4.9668,7.1031,161.0,21.963,37.016,327.61,0.22163,22.67,0.031304,supercritical,O2,C7782447,oxygen,154.58,50.43,13.6,0.07352941176470588,1.8,2.2393416617093003,0.002572712
278.24,114.3,5353.2,0.0001868,4.9568,7.0919,160.87,21.973,37.112,327.92,0.22039,22.725,0.031402,supercritical,O2,C7782447,oxygen,154.58,50.43,13.6,0.07352941176470588,1.8,2.266508030933968,0.00254048
278.24,115.66,5420.2,0.00018449,4.9469,7.0807,160.74,21.984,37.207,328.25,0.21916,22.78,0.0315,supercritical,O2,C7782447,oxygen,154.58,50.43,13.6,0.07352941176470588,1.8,2.293476105492762,0.0025090639999999997
278.24,117.03,5487.3,0.00018224,4.9369,7.0696,160.61,21.994,37.302,328.58,0.21792,22.835,0.031599,supercritical,O2,C7782447,oxygen,154.58,50.43,13.6,0.07352941176470588,1.8,2.32064247471743,0.0024784639999999997
278.24,118.39,5554.3,0.00018004,4.927,7.0585,160.48,22.004,37.397,328.91,0.21668,22.891,0.031699,supercritical,O2,C7782447,oxygen,154.58,50.43,13.6,0.07352941176470588,1.8,2.3476105492762245,0.002448544
278.24,119.75,5621.3,0.0001779,4.9171,7.0475,160.35,22.014,37.491,329.26,0.21544,22.948,0.031799,supercritical,O2,C7782447,oxygen,154.58,50.43,13.6,0.07352941176470588,1.8,2.374578623835019,0.0024194399999999997
278.24,121.12,5688.3,0.0001758,4.9072,7.0365,160.23,22.024,37.585,329.6,0.2142,23.005,0.031899,supercritical,O2,C7782447,oxygen,154.58,50.43,13.6,0.07352941176470588,1.8,2.401744993059687,0.0023908799999999997
278.24,122.48,5755.3,0.00017375,4.8973,7.0255,160.1,22.033,37.679,329.95,0.21296,23.063,0.032,supercritical,O2,C7782447,oxygen,154.58,50.43,13.6,0.07352941176470588,1.8,2.428713067618481,0.0023629999999999996
278.24,123.85,5822.3,0.00017175,4.8874,7.0146,159.98,22.043,37.772,330.31,0.21171,23.121,0.032102,supercritical,O2,C7782447,oxygen,154.58,50.43,13.6,0.07352941176470588,1.8,2.4558794368431487,0.0023358
278.24,125.22,5889.3,0.0001698,4.8775,7.0037,159.85,22.053,37.865,330.67,0.21047,23.179,0.032204,supercritical,O2,C7782447,oxygen,154.58,50.43,13.6,0.07352941176470588,1.8,2.4830458060678167,0.00230928
278.24,126.58,5956.3,0.00016789,4.8677,6.9928,159.73,22.063,37.957,331.04,0.20922,23.238,0.032307,supercritical,O2,C7782447,oxygen,154.58,50.43,13.6,0.07352941176470588,1.8,2.510013880626611,0.002283304
278.24,127.94,6023.2,0.00016602,4.8578,6.982,159.61,22.072,38.05,331.41,0.20798,23.297,0.03241,supercritical,O2,C7782447,oxygen,154.58,50.43,13.6,0.07352941176470588,1.8,2.5369819551854054,0.002257872
278.24,129.31,6090.2,0.0001642,4.848,6.9712,159.49,22.082,38.141,331.79,0.20673,23.357,0.032513,supercritical,O2,C7782447,oxygen,154.58,50.43,13.6,0.07352941176470588,1.8,2.5641483244100733,0.00223312
278.24,130.68,6157.1,0.00016241,4.8381,6.9605,159.37,22.091,38.233,332.17,0.20549,23.417,0.032617,supercritical,O2,C7782447,oxygen,154.58,50.43,13.6,0.07352941176470588,1.8,2.5913146936347413,0.002208776
278.24,132.04,6224.0,0.00016067,4.8283,6.9498,159.26,22.101,38.324,332.56,0.20424,23.478,0.032722,supercritical,O2,C7782447,oxygen,154.58,50.43,13.6,0.07352941176470588,1.8,2.6182827681935357,0.002185112