Temperature (K),Pressure (bar),Density (mol/m3),Volume (m3/mol),Internal Energy (kJ/mol),Enthalpy (kJ/mol),Entropy (J/mol*K),Cv (J/mol*K),Cp (J/mol*K),Sound Spd. (m/s),Joule-Thomson (K/bar),Viscosity (uPa*s),Therm. Cond. (W/m*K),Phase,substance,substance_id,substance_name,Tc,Pc,rhoc,Vmc,Tr,Pr,Vmr
316.81,455.77,15408.0,6.4903e-05,1.8449,4.803,99.911,14.238,31.817,497.59,0.024829,44.352,0.042405,supercritical,Ar,C7440371,argon,150.86,48.9805,13.41,0.07457121551081282,2.1,9.305131634017618,0.00087034923
316.81,457.4,15444.0,6.4749e-05,1.8401,4.8017,99.873,14.242,31.817,498.38,0.024357,44.441,0.042493,supercritical,Ar,C7440371,argon,150.86,48.9805,13.41,0.07457121551081282,2.1,9.33841018364451,0.0008682840900000001
316.81,459.03,15481.0,6.4596e-05,1.8353,4.8004,99.836,14.245,31.817,499.16,0.023887,44.53,0.042581,supercritical,Ar,C7440371,argon,150.86,48.9805,13.41,0.07457121551081282,2.1,9.371688733271403,0.0008662323600000002
316.81,460.66,15517.0,6.4444e-05,1.8306,4.7992,99.799,14.249,31.817,499.95,0.023421,44.619,0.04267,supercritical,Ar,C7440371,argon,150.86,48.9805,13.41,0.07457121551081282,2.1,9.404967282898298,0.00086419404
316.81,462.29,15554.0,6.4293e-05,1.8258,4.798,99.762,14.253,31.817,500.74,0.022958,44.708,0.042758,supercritical,Ar,C7440371,argon,150.86,48.9805,13.41,0.07457121551081282,2.1,9.438245832525189,0.0008621691300000001
316.81,463.92,15590.0,6.4143e-05,1.8211,4.7968,99.725,14.257,31.817,501.52,0.022497,44.797,0.042846,supercritical,Ar,C7440371,argon,150.86,48.9805,13.41,0.07457121551081282,2.1,9.471524382152081,0.00086015763
316.81,465.55,15626.0,6.3995e-05,1.8164,4.7957,99.689,14.261,31.817,502.3,0.02204,44.886,0.042934,supercritical,Ar,C7440371,argon,150.86,48.9805,13.41,0.07457121551081282,2.1,9.504802931778974,0.00085817295
316.81,467.18,15662.0,6.3848e-05,1.8117,4.7946,99.652,14.264,31.816,503.09,0.021585,44.975,0.043022,supercritical,Ar,C7440371,argon,150.86,48.9805,13.41,0.07457121551081282,2.1,9.538081481405866,0.0008562016800000001
316.81,468.81,15698.0,6.3702e-05,1.807,4.7934,99.616,14.268,31.816,503.87,0.021134,45.064,0.04311,supercritical,Ar,C7440371,argon,150.86,48.9805,13.41,0.07457121551081282,2.1,9.571360031032759,0.0008542438200000001
316.81,470.44,15734.0,6.3557e-05,1.8024,4.7924,99.58,14.272,31.815,504.65,0.020685,45.153,0.043197,supercritical,Ar,C7440371,argon,150.86,48.9805,13.41,0.07457121551081282,2.1,9.60463858065965,0.0008522993700000001
316.81,472.07,15770.0,6.3413e-05,1.7978,4.7913,99.544,14.276,31.814,505.44,0.020239,45.241,0.043285,supercritical,Ar,C7440371,argon,150.86,48.9805,13.41,0.07457121551081282,2.1,9.637917130286542,0.0008503683300000001
316.81,473.7,15805.0,6.3271e-05,1.7931,4.7903,99.508,14.279,31.814,506.22,0.019796,45.33,0.043372,supercritical,Ar,C7440371,argon,150.86,48.9805,13.41,0.07457121551081282,2.1,9.671195679913435,0.00084846411
316.81,475.33,15841.0,6.3129e-05,1.7885,4.7892,99.472,14.283,31.813,507.0,0.019356,45.419,0.04346,supercritical,Ar,C7440371,argon,150.86,48.9805,13.41,0.07457121551081282,2.1,9.704474229540327,0.0008465598900000001
316.81,476.96,15876.0,6.2989e-05,1.7839,4.7883,99.437,14.287,31.812,507.78,0.018919,45.507,0.043547,supercritical,Ar,C7440371,argon,150.86,48.9805,13.41,0.07457121551081282,2.1,9.73775277916722,0.0008446824900000001
316.81,478.59,15911.0,6.2849e-05,1.7794,4.7873,99.401,14.29,31.811,508.56,0.018484,45.596,0.043634,supercritical,Ar,C7440371,argon,150.86,48.9805,13.41,0.07457121551081282,2.1,9.77103132879411,0.00084280509
316.81,480.22,15946.0,6.2711e-05,1.7748,4.7863,99.366,14.294,31.81,509.34,0.018052,45.684,0.043721,supercritical,Ar,C7440371,argon,150.86,48.9805,13.41,0.07457121551081282,2.1,9.804309878421005,0.0008409545100000001
316.81,481.85,15981.0,6.2574e-05,1.7703,4.7854,99.331,14.298,31.808,510.12,0.017623,45.772,0.043808,supercritical,Ar,C7440371,argon,150.86,48.9805,13.41,0.07457121551081282,2.1,9.837588428047898,0.0008391173400000001
316.81,483.48,16016.0,6.2438e-05,1.7658,4.7845,99.296,14.302,31.807,510.9,0.017197,45.86,0.043895,supercritical,Ar,C7440371,argon,150.86,48.9805,13.41,0.07457121551081282,2.1,9.870866977674789,0.0008372935800000001
316.81,485.11,16051.0,6.2303e-05,1.7612,4.7836,99.261,14.305,31.806,511.68,0.016773,45.948,0.043981,supercritical,Ar,C7440371,argon,150.86,48.9805,13.41,0.07457121551081282,2.1,9.904145527301681,0.0008354832300000001
316.81,486.74,16085.0,6.2169e-05,1.7567,4.7828,99.226,14.309,31.804,512.46,0.016352,46.036,0.044068,supercritical,Ar,C7440371,argon,150.86,48.9805,13.41,0.07457121551081282,2.1,9.937424076928574,0.00083368629
316.81,488.37,16120.0,6.2036e-05,1.7523,4.7819,99.192,14.313,31.803,513.23,0.015933,46.124,0.044154,supercritical,Ar,C7440371,argon,150.86,48.9805,13.41,0.07457121551081282,2.1,9.970702626555466,0.0008319027600000001
316.81,490.0,16154.0,6.1904e-05,1.7478,4.7811,99.157,14.316,31.801,514.01,0.015518,46.212,0.044241,supercritical,Ar,C7440371,argon,150.86,48.9805,13.41,0.07457121551081282,2.1,10.003981176182359,0.0008301326400000001
316.81,491.63,16188.0,6.1773e-05,1.7434,4.7803,99.123,14.32,31.799,514.79,0.015105,46.3,0.044327,supercritical,Ar,C7440371,argon,150.86,48.9805,13.41,0.07457121551081282,2.1,10.037259725809252,0.0008283759300000002
316.81,493.26,16222.0,6.1643e-05,1.7389,4.7796,99.089,14.324,31.798,515.56,0.014694,46.388,0.044413,supercritical,Ar,C7440371,argon,150.86,48.9805,13.41,0.07457121551081282,2.1,10.070538275436142,0.0008266326300000002
316.81,494.89,16256.0,6.1514e-05,1.7345,4.7788,99.054,14.327,31.796,516.34,0.014286,46.476,0.044499,supercritical,Ar,C7440371,argon,150.86,48.9805,13.41,0.07457121551081282,2.1,10.103816825063035,0.00082490274
316.81,496.52,16290.0,6.1386e-05,1.7301,4.7781,99.021,14.331,31.794,517.11,0.013881,46.563,0.044585,supercritical,Ar,C7440371,argon,150.86,48.9805,13.41,0.07457121551081282,2.1,10.137095374689927,0.0008231862600000001
316.81,498.15,16324.0,6.1259e-05,1.7257,4.7774,98.987,14.335,31.792,517.89,0.013478,46.651,0.044671,supercritical,Ar,C7440371,argon,150.86,48.9805,13.41,0.07457121551081282,2.1,10.17037392431682,0.0008214831900000001
316.81,499.78,16358.0,6.1133e-05,1.7214,4.7767,98.953,14.338,31.79,518.66,0.013077,46.738,0.044757,supercritical,Ar,C7440371,argon,150.86,48.9805,13.41,0.07457121551081282,2.1,10.203652473943713,0.00081979353
316.81,501.41,16391.0,6.1008e-05,1.717,4.776,98.92,14.342,31.788,519.43,0.01268,46.826,0.044842,supercritical,Ar,C7440371,argon,150.86,48.9805,13.41,0.07457121551081282,2.1,10.236931023570605,0.0008181172800000001
316.81,503.04,16425.0,6.0883e-05,1.7127,4.7754,98.886,14.346,31.785,520.2,0.012284,46.913,0.044928,supercritical,Ar,C7440371,argon,150.86,48.9805,13.41,0.07457121551081282,2.1,10.270209573197498,0.0008164410300000001
316.81,504.67,16458.0,6.076e-05,1.7084,4.7747,98.853,14.349,31.783,520.98,0.011891,47.001,0.045013,supercritical,Ar,C7440371,argon,150.86,48.9805,13.41,0.07457121551081282,2.1,10.30348812282439,0.0008147916000000001
316.81,506.3,16491.0,6.0638e-05,1.704,4.7741,98.82,14.353,31.781,521.75,0.011501,47.088,0.045098,supercritical,Ar,C7440371,argon,150.86,48.9805,13.41,0.07457121551081282,2.1,10.336766672451281,0.00081315558
316.81,507.93,16525.0,6.0516e-05,1.6998,4.7735,98.787,14.357,31.778,522.52,0.011113,47.175,0.045184,supercritical,Ar,C7440371,argon,150.86,48.9805,13.41,0.07457121551081282,2.1,10.370045222078174,0.0008115195600000001
316.81,509.56,16558.0,6.0395e-05,1.6955,4.773,98.754,14.36,31.776,523.29,0.010727,47.262,0.045269,supercritical,Ar,C7440371,argon,150.86,48.9805,13.41,0.07457121551081282,2.1,10.403323771705066,0.00080989695
316.81,511.19,16591.0,6.0275e-05,1.6912,4.7724,98.721,14.364,31.774,524.06,0.010344,47.349,0.045354,supercritical,Ar,C7440371,argon,150.86,48.9805,13.41,0.07457121551081282,2.1,10.436602321331959,0.0008082877500000001
316.81,512.82,16623.0,6.0156e-05,1.687,4.7719,98.688,14.368,31.771,524.83,0.0099635,47.436,0.045438,supercritical,Ar,C7440371,argon,150.86,48.9805,13.41,0.07457121551081282,2.1,10.469880870958852,0.0008066919600000001
316.81,514.45,16656.0,6.0038e-05,1.6827,4.7714,98.656,14.371,31.768,525.59,0.0095851,47.523,0.045523,supercritical,Ar,C7440371,argon,150.86,48.9805,13.41,0.07457121551081282,2.1,10.503159420585744,0.00080510958
316.81,516.08,16689.0,5.9921e-05,1.6785,4.7709,98.624,14.375,31.766,526.36,0.009209,47.61,0.045608,supercritical,Ar,C7440371,argon,150.86,48.9805,13.41,0.07457121551081282,2.1,10.536437970212637,0.00080354061
316.81,517.71,16721.0,5.9805e-05,1.6743,4.7704,98.591,14.379,31.763,527.13,0.0088353,47.697,0.045692,supercritical,Ar,C7440371,argon,150.86,48.9805,13.41,0.07457121551081282,2.1,10.56971651983953,0.0008019850500000001
316.81,519.34,16753.0,5.9689e-05,1.6701,4.77,98.559,14.382,31.76,527.89,0.0084638,47.783,0.045777,supercritical,Ar,C7440371,argon,150.86,48.9805,13.41,0.07457121551081282,2.1,10.602995069466422,0.0008004294900000001
316.81,520.97,16786.0,5.9574e-05,1.6659,4.7696,98.527,14.386,31.757,528.66,0.0080947,47.87,0.045861,supercritical,Ar,C7440371,argon,150.86,48.9805,13.41,0.07457121551081282,2.1,10.636273619093313,0.0007988873400000001
316.81,522.6,16818.0,5.946e-05,1.6618,4.7692,98.495,14.389,31.754,529.43,0.0077278,47.956,0.045945,supercritical,Ar,C7440371,argon,150.86,48.9805,13.41,0.07457121551081282,2.1,10.669552168720205,0.0007973586000000002
316.81,524.23,16850.0,5.9347e-05,1.6576,4.7688,98.463,14.393,31.751,530.19,0.0073632,48.043,0.046029,supercritical,Ar,C7440371,argon,150.86,48.9805,13.41,0.07457121551081282,2.1,10.702830718347098,0.0007958432700000001
316.81,525.86,16882.0,5.9235e-05,1.6535,4.7684,98.432,14.397,31.748,530.95,0.0070008,48.129,0.046113,supercritical,Ar,C7440371,argon,150.86,48.9805,13.41,0.07457121551081282,2.1,10.73610926797399,0.0007943413500000001
316.81,527.49,16914.0,5.9123e-05,1.6494,4.768,98.4,14.4,31.745,531.72,0.0066407,48.216,0.046197,supercritical,Ar,C7440371,argon,150.86,48.9805,13.41,0.07457121551081282,2.1,10.769387817600883,0.0007928394300000002
316.81,529.12,16946.0,5.9012e-05,1.6453,4.7677,98.369,14.404,31.742,532.48,0.0062828,48.302,0.046281,supercritical,Ar,C7440371,argon,150.86,48.9805,13.41,0.07457121551081282,2.1,10.802666367227774,0.00079135092
316.81,530.75,16977.0,5.8902e-05,1.6412,4.7674,98.337,14.407,31.739,533.24,0.005927,48.388,0.046365,supercritical,Ar,C7440371,argon,150.86,48.9805,13.41,0.07457121551081282,2.1,10.835944916854666,0.0007898758200000001
316.81,532.38,17009.0,5.8793e-05,1.6371,4.7671,98.306,14.411,31.736,534.0,0.0055735,48.475,0.046448,supercritical,Ar,C7440371,argon,150.86,48.9805,13.41,0.07457121551081282,2.1,10.869223466481559,0.00078841413
316.81,534.01,17040.0,5.8684e-05,1.633,4.7668,98.275,14.414,31.733,534.76,0.0052221,48.561,0.046532,supercritical,Ar,C7440371,argon,150.86,48.9805,13.41,0.07457121551081282,2.1,10.902502016108452,0.0007869524400000001
316.81,535.64,17072.0,5.8577e-05,1.629,4.7666,98.244,14.418,31.729,535.52,0.0048729,48.647,0.046615,supercritical,Ar,C7440371,argon,150.86,48.9805,13.41,0.07457121551081282,2.1,10.935780565735344,0.00078551757
316.81,537.27,17103.0,5.847e-05,1.6249,4.7663,98.213,14.422,31.726,536.28,0.0045257,48.733,0.046698,supercritical,Ar,C7440371,argon,150.86,48.9805,13.41,0.07457121551081282,2.1,10.969059115362235,0.0007840827000000001
316.81,538.9,17134.0,5.8363e-05,1.6209,4.7661,98.182,14.425,31.723,537.04,0.0041807,48.819,0.046782,supercritical,Ar,C7440371,argon,150.86,48.9805,13.41,0.07457121551081282,2.1,11.002337664989128,0.0007826478300000001
316.81,540.53,17165.0,5.8258e-05,1.6169,4.7659,98.152,14.429,31.719,537.8,0.0038379,48.905,0.046865,supercritical,Ar,C7440371,argon,150.86,48.9805,13.41,0.07457121551081282,2.1,11.03561621461602,0.00078123978
316.81,542.16,17196.0,5.8153e-05,1.6129,4.7657,98.121,14.432,31.716,538.55,0.003497,48.991,0.046948,supercritical,Ar,C7440371,argon,150.86,48.9805,13.41,0.07457121551081282,2.1,11.068894764242913,0.00077983173
316.81,543.79,17227.0,5.8048e-05,1.6089,4.7655,98.091,14.436,31.712,539.31,0.0031583,49.077,0.04703,supercritical,Ar,C7440371,argon,150.86,48.9805,13.41,0.07457121551081282,2.1,11.102173313869805,0.0007784236800000001
316.81,545.42,17258.0,5.7945e-05,1.6049,4.7654,98.06,14.439,31.709,540.07,0.0028216,49.162,0.047113,supercritical,Ar,C7440371,argon,150.86,48.9805,13.41,0.07457121551081282,2.1,11.135451863496696,0.0007770424500000001
316.81,547.05,17288.0,5.7842e-05,1.601,4.7652,98.03,14.443,31.705,540.82,0.002487,49.248,0.047196,supercritical,Ar,C7440371,argon,150.86,48.9805,13.41,0.07457121551081282,2.1,11.168730413123589,0.0007756612200000001
316.81,548.68,17319.0,5.774e-05,1.597,4.7651,98.0,14.447,31.702,541.57,0.0021544,49.334,0.047278,supercritical,Ar,C7440371,argon,150.86,48.9805,13.41,0.07457121551081282,2.1,11.202008962750481,0.0007742934
316.81,550.31,17349.0,5.7639e-05,1.5931,4.765,97.97,14.45,31.698,542.33,0.0018238,49.419,0.047361,supercritical,Ar,C7440371,argon,150.86,48.9805,13.41,0.07457121551081282,2.1,11.235287512377374,0.0007729389900000001
316.81,551.94,17380.0,5.7538e-05,1.5892,4.7649,97.94,14.454,31.694,543.08,0.0014951,49.505,0.047443,supercritical,Ar,C7440371,argon,150.86,48.9805,13.41,0.07457121551081282,2.1,11.268566062004268,0.00077158458
316.81,553.57,17410.0,5.7438e-05,1.5853,4.7648,97.91,14.457,31.69,543.83,0.0011685,49.59,0.047525,supercritical,Ar,C7440371,argon,150.86,48.9805,13.41,0.07457121551081282,2.1,11.30184461163116,0.0007702435800000001
316.81,555.2,17440.0,5.7338e-05,1.5814,4.7648,97.881,14.461,31.687,544.58,0.00084386,49.676,0.047608,supercritical,Ar,C7440371,argon,150.86,48.9805,13.41,0.07457121551081282,2.1,11.335123161258053,0.0007689025800000001
316.81,556.83,17470.0,5.724e-05,1.5775,4.7648,97.851,14.464,31.683,545.33,0.00052114,49.761,0.04769,supercritical,Ar,C7440371,argon,150.86,48.9805,13.41,0.07457121551081282,2.1,11.368401710884944,0.0007675884000000001
316.81,558.46,17500.0,5.7141e-05,1.5736,4.7647,97.822,14.468,31.679,546.08,0.00020037,49.847,0.047772,supercritical,Ar,C7440371,argon,150.86,48.9805,13.41,0.07457121551081282,2.1,11.401680260511837,0.0007662608100000001
316.81,560.09,17530.0,5.7044e-05,1.5698,4.7647,97.792,14.471,31.675,546.83,-0.00011848,49.932,0.047853,supercritical,Ar,C7440371,argon,150.86,48.9805,13.41,0.07457121551081282,2.1,11.43495881013873,0.00076496004
316.81,561.72,17560.0,5.6947e-05,1.5659,4.7648,97.763,14.475,31.671,547.58,-0.00043542,50.017,0.047935,supercritical,Ar,C7440371,argon,150.86,48.9805,13.41,0.07457121551081282,2.1,11.468237359765622,0.0007636592700000001
316.81,563.35,17590.0,5.6851e-05,1.5621,4.7648,97.734,14.478,31.667,548.33,-0.00075046,50.102,0.048017,supercritical,Ar,C7440371,argon,150.86,48.9805,13.41,0.07457121551081282,2.1,11.501515909392515,0.0007623719100000001
316.81,564.98,17620.0,5.6755e-05,1.5583,4.7648,97.705,14.482,31.663,549.08,-0.0010636,50.187,0.048098,supercritical,Ar,C7440371,argon,150.86,48.9805,13.41,0.07457121551081282,2.1,11.534794459019405,0.0007610845500000001
316.81,566.61,17649.0,5.666e-05,1.5545,4.7649,97.676,14.485,31.659,549.82,-0.0013749,50.273,0.04818,supercritical,Ar,C7440371,argon,150.86,48.9805,13.41,0.07457121551081282,2.1,11.568073008646298,0.0007598106000000001
316.81,568.24,17679.0,5.6566e-05,1.5507,4.765,97.647,14.489,31.655,550.57,-0.0016843,50.358,0.048261,supercritical,Ar,C7440371,argon,150.86,48.9805,13.41,0.07457121551081282,2.1,11.60135155827319,0.0007585500600000001
316.81,569.87,17708.0,5.6472e-05,1.5469,4.7651,97.618,14.492,31.651,551.31,-0.0019919,50.443,0.048342,supercritical,Ar,C7440371,argon,150.86,48.9805,13.41,0.07457121551081282,2.1,11.634630107900083,0.0007572895200000001
316.81,571.5,17737.0,5.6379e-05,1.5431,4.7652,97.589,14.496,31.647,552.06,-0.0022977,50.528,0.048424,supercritical,Ar,C7440371,argon,150.86,48.9805,13.41,0.07457121551081282,2.1,11.667908657526976,0.00075604239
316.81,573.13,17766.0,5.6286e-05,1.5394,4.7653,97.561,14.499,31.643,552.8,-0.0026017,50.613,0.048505,supercritical,Ar,C7440371,argon,150.86,48.9805,13.41,0.07457121551081282,2.1,11.701187207153868,0.0007547952600000001
316.81,574.76,17795.0,5.6194e-05,1.5356,4.7654,97.532,14.503,31.639,553.54,-0.0029038,50.698,0.048586,supercritical,Ar,C7440371,argon,150.86,48.9805,13.41,0.07457121551081282,2.1,11.734465756780759,0.00075356154
316.81,576.39,17824.0,5.6103e-05,1.5319,4.7656,97.504,14.506,31.635,554.29,-0.0032042,50.782,0.048666,supercritical,Ar,C7440371,argon,150.86,48.9805,13.41,0.07457121551081282,2.1,11.767744306407652,0.0007523412300000001
316.81,578.02,17853.0,5.6012e-05,1.5282,4.7658,97.476,14.51,31.631,555.03,-0.0035028,50.867,0.048747,supercritical,Ar,C7440371,argon,150.86,48.9805,13.41,0.07457121551081282,2.1,11.801022856034544,0.0007511209200000001
316.81,579.65,17882.0,5.5921e-05,1.5245,4.766,97.447,14.513,31.627,555.77,-0.0037996,50.952,0.048828,supercritical,Ar,C7440371,argon,150.86,48.9805,13.41,0.07457121551081282,2.1,11.834301405661437,0.0007499006100000001
316.81,581.28,17911.0,5.5832e-05,1.5208,4.7662,97.419,14.517,31.622,556.51,-0.0040946,51.037,0.048909,supercritical,Ar,C7440371,argon,150.86,48.9805,13.41,0.07457121551081282,2.1,11.86757995528833,0.00074870712
316.81,582.91,17940.0,5.5743e-05,1.5171,4.7664,97.391,14.52,31.618,557.25,-0.004388,51.121,0.048989,supercritical,Ar,C7440371,argon,150.86,48.9805,13.41,0.07457121551081282,2.1,11.90085850491522,0.0007475136300000001
316.81,584.54,17968.0,5.5654e-05,1.5134,4.7666,97.363,14.524,31.614,557.98,-0.0046796,51.206,0.049069,supercritical,Ar,C7440371,argon,150.86,48.9805,13.41,0.07457121551081282,2.1,11.934137054542113,0.0007463201400000001
316.81,586.17,17997.0,5.5566e-05,1.5098,4.7669,97.336,14.527,31.61,558.72,-0.0049695,51.291,0.04915,supercritical,Ar,C7440371,argon,150.86,48.9805,13.41,0.07457121551081282,2.1,11.967415604169005,0.0007451400600000001
316.81,587.8,18025.0,5.5478e-05,1.5061,4.7671,97.308,14.531,31.605,559.46,-0.0052577,51.375,0.04923,supercritical,Ar,C7440371,argon,150.86,48.9805,13.41,0.07457121551081282,2.1,12.000694153795898,0.0007439599800000001
316.81,589.43,18053.0,5.5391e-05,1.5025,4.7674,97.28,14.534,31.601,560.19,-0.0055442,51.46,0.04931,supercritical,Ar,C7440371,argon,150.86,48.9805,13.41,0.07457121551081282,2.1,12.03397270342279,0.00074279331
316.81,591.06,18082.0,5.5305e-05,1.4989,4.7677,97.253,14.538,31.597,560.93,-0.005829,51.544,0.04939,supercritical,Ar,C7440371,argon,150.86,48.9805,13.41,0.07457121551081282,2.1,12.067251253049681,0.00074164005
316.81,592.69,18110.0,5.5219e-05,1.4952,4.768,97.225,14.541,31.592,561.66,-0.0061122,51.629,0.04947,supercritical,Ar,C7440371,argon,150.86,48.9805,13.41,0.07457121551081282,2.1,12.100529802676578,0.00074048679
316.81,594.32,18138.0,5.5133e-05,1.4916,4.7683,97.198,14.544,31.588,562.4,-0.0063937,51.713,0.04955,supercritical,Ar,C7440371,argon,150.86,48.9805,13.41,0.07457121551081282,2.1,12.133808352303468,0.0007393335300000001
316.81,595.95,18166.0,5.5048e-05,1.4881,4.7687,97.171,14.548,31.583,563.13,-0.0066736,51.797,0.04963,supercritical,Ar,C7440371,argon,150.86,48.9805,13.41,0.07457121551081282,2.1,12.167086901930361,0.00073819368
316.81,597.58,18194.0,5.4964e-05,1.4845,4.769,97.143,14.551,31.579,563.86,-0.0069518,51.882,0.049709,supercritical,Ar,C7440371,argon,150.86,48.9805,13.41,0.07457121551081282,2.1,12.200365451557253,0.00073706724
316.81,599.21,18222.0,5.488e-05,1.4809,4.7694,97.116,14.555,31.574,564.59,-0.0072285,51.966,0.049789,supercritical,Ar,C7440371,argon,150.86,48.9805,13.41,0.07457121551081282,2.1,12.233644001184146,0.0007359408000000001
316.81,600.84,18249.0,5.4797e-05,1.4774,4.7698,97.089,14.558,31.57,565.33,-0.0075035,52.05,0.049868,supercritical,Ar,C7440371,argon,150.86,48.9805,13.41,0.07457121551081282,2.1,12.266922550811039,0.00073482777
316.81,602.47,18277.0,5.4714e-05,1.4738,4.7702,97.062,14.562,31.565,566.06,-0.0077769,52.135,0.049948,supercritical,Ar,C7440371,argon,150.86,48.9805,13.41,0.07457121551081282,2.1,12.30020110043793,0.0007337147400000001