Temperature (K),Pressure (bar),Density (mol/m3),Volume (m3/mol),Internal Energy (kJ/mol),Enthalpy (kJ/mol),Entropy (J/mol*K),Cv (J/mol*K),Cp (J/mol*K),Sound Spd. (m/s),Joule-Thomson (K/bar),Viscosity (uPa*s),Therm. Cond. (W/m*K),Phase,substance,substance_id,substance_name,Tc,Pc,rhoc,Vmc,Tr,Pr,Vmr
365.02,224.71,13186.0,7.5841e-05,15.678,17.383,67.667,40.046,103.97,354.4,0.16854,44.933,0.063782,supercritical,CO2,C124389,carbon-dioxide,304.18,73.8,10.6,0.09433962264150944,1.2,3.0448509485094855,0.0008039145999999999
365.02,227.17,13300.0,7.519e-05,15.632,17.34,67.5,40.034,103.43,357.63,0.16423,45.426,0.064259,supercritical,CO2,C124389,carbon-dioxide,304.18,73.8,10.6,0.09433962264150944,1.2,3.0781842818428182,0.000797014
365.02,229.62,13411.0,7.4564e-05,15.587,17.299,67.337,40.022,102.89,360.85,0.16006,45.914,0.06473,supercritical,CO2,C124389,carbon-dioxide,304.18,73.8,10.6,0.09433962264150944,1.2,3.1113821138211386,0.0007903783999999999
365.02,232.08,13520.0,7.3963e-05,15.543,17.259,67.178,40.01,102.36,364.05,0.15603,46.397,0.065195,supercritical,CO2,C124389,carbon-dioxide,304.18,73.8,10.6,0.09433962264150944,1.2,3.144715447154472,0.0007840077999999999
365.02,234.54,13627.0,7.3384e-05,15.499,17.22,67.022,39.998,101.83,367.25,0.15214,46.875,0.065654,supercritical,CO2,C124389,carbon-dioxide,304.18,73.8,10.6,0.09433962264150944,1.2,3.178048780487805,0.0007778704
365.02,237.0,13731.0,7.2827e-05,15.457,17.183,66.87,39.987,101.3,370.44,0.14839,47.347,0.066107,supercritical,CO2,C124389,carbon-dioxide,304.18,73.8,10.6,0.09433962264150944,1.2,3.2113821138211383,0.0007719662
365.02,239.46,13833.0,7.229e-05,15.416,17.147,66.722,39.975,100.78,373.62,0.14475,47.815,0.066554,supercritical,CO2,C124389,carbon-dioxide,304.18,73.8,10.6,0.09433962264150944,1.2,3.244715447154472,0.000766274
365.02,241.92,13933.0,7.1772e-05,15.375,17.111,66.576,39.964,100.27,376.78,0.14124,48.277,0.066996,supercritical,CO2,C124389,carbon-dioxide,304.18,73.8,10.6,0.09433962264150944,1.2,3.2780487804878047,0.0007607832
365.02,244.37,14031.0,7.1273e-05,15.335,17.077,66.434,39.953,99.773,379.93,0.13785,48.735,0.067432,supercritical,CO2,C124389,carbon-dioxide,304.18,73.8,10.6,0.09433962264150944,1.2,3.311246612466125,0.0007554937999999998
365.02,246.83,14126.0,7.079e-05,15.296,17.044,66.295,39.943,99.279,383.06,0.13457,49.188,0.067863,supercritical,CO2,C124389,carbon-dioxide,304.18,73.8,10.6,0.09433962264150944,1.2,3.3445799457994583,0.000750374
365.02,249.29,14220.0,7.0324e-05,15.258,17.011,66.159,39.932,98.794,386.18,0.13139,49.636,0.068289,supercritical,CO2,C124389,carbon-dioxide,304.18,73.8,10.6,0.09433962264150944,1.2,3.3779132791327915,0.0007454343999999999
365.02,251.75,14312.0,6.9873e-05,15.221,16.98,66.026,39.922,98.318,389.28,0.12832,50.079,0.068709,supercritical,CO2,C124389,carbon-dioxide,304.18,73.8,10.6,0.09433962264150944,1.2,3.4112466124661247,0.0007406537999999999
365.02,254.21,14401.0,6.9437e-05,15.184,16.949,65.895,39.912,97.85,392.36,0.12535,50.518,0.069125,supercritical,CO2,C124389,carbon-dioxide,304.18,73.8,10.6,0.09433962264150944,1.2,3.4445799457994584,0.0007360322
365.02,256.67,14490.0,6.9015e-05,15.148,16.919,65.767,39.902,97.39,395.42,0.12246,50.952,0.069537,supercritical,CO2,C124389,carbon-dioxide,304.18,73.8,10.6,0.09433962264150944,1.2,3.4779132791327916,0.000731559
365.02,259.12,14576.0,6.8606e-05,15.113,16.891,65.641,39.893,96.94,398.47,0.11967,51.381,0.069943,supercritical,CO2,C124389,carbon-dioxide,304.18,73.8,10.6,0.09433962264150944,1.2,3.5111111111111115,0.0007272235999999999
365.02,261.58,14661.0,6.821e-05,15.078,16.862,65.518,39.883,96.498,401.5,0.11697,51.806,0.070345,supercritical,CO2,C124389,carbon-dioxide,304.18,73.8,10.6,0.09433962264150944,1.2,3.5444444444444443,0.000723026
365.02,264.04,14744.0,6.7826e-05,15.044,16.835,65.397,39.875,96.065,404.51,0.11434,52.227,0.070743,supercritical,CO2,C124389,carbon-dioxide,304.18,73.8,10.6,0.09433962264150944,1.2,3.5777777777777784,0.0007189556
365.02,266.5,14825.0,6.7453e-05,15.011,16.808,65.279,39.866,95.64,407.5,0.1118,52.644,0.071136,supercritical,CO2,C124389,carbon-dioxide,304.18,73.8,10.6,0.09433962264150944,1.2,3.611111111111111,0.0007150018
365.02,268.96,14905.0,6.7092e-05,14.978,16.782,65.162,39.858,95.224,410.47,0.10933,53.057,0.071526,supercritical,CO2,C124389,carbon-dioxide,304.18,73.8,10.6,0.09433962264150944,1.2,3.6444444444444444,0.0007111751999999999
365.02,271.42,14983.0,6.674e-05,14.946,16.757,65.048,39.849,94.816,413.43,0.10693,53.465,0.071911,supercritical,CO2,C124389,carbon-dioxide,304.18,73.8,10.6,0.09433962264150944,1.2,3.677777777777778,0.000707444
365.02,273.87,15061.0,6.6399e-05,14.914,16.733,64.936,39.842,94.416,416.36,0.10461,53.87,0.072292,supercritical,CO2,C124389,carbon-dioxide,304.18,73.8,10.6,0.09433962264150944,1.2,3.710975609756098,0.0007038293999999999
365.02,276.33,15136.0,6.6067e-05,14.883,16.709,64.826,39.834,94.024,419.28,0.10235,54.271,0.072669,supercritical,CO2,C124389,carbon-dioxide,304.18,73.8,10.6,0.09433962264150944,1.2,3.7443089430894307,0.0007003102
365.02,278.79,15211.0,6.5744e-05,14.852,16.685,64.717,39.827,93.64,422.18,0.10015,54.668,0.073043,supercritical,CO2,C124389,carbon-dioxide,304.18,73.8,10.6,0.09433962264150944,1.2,3.777642276422765,0.0006968864
365.02,281.25,15284.0,6.543e-05,14.822,16.662,64.611,39.82,93.264,425.06,0.098016,55.061,0.073413,supercritical,CO2,C124389,carbon-dioxide,304.18,73.8,10.6,0.09433962264150944,1.2,3.8109756097560976,0.0006935579999999999
365.02,283.71,15355.0,6.5124e-05,14.793,16.64,64.506,39.813,92.895,427.92,0.095939,55.451,0.073779,supercritical,CO2,C124389,carbon-dioxide,304.18,73.8,10.6,0.09433962264150944,1.2,3.844308943089431,0.0006903144
365.02,286.17,15426.0,6.4826e-05,14.764,16.619,64.403,39.806,92.533,430.76,0.093919,55.837,0.074141,supercritical,CO2,C124389,carbon-dioxide,304.18,73.8,10.6,0.09433962264150944,1.2,3.8776422764227645,0.0006871556
365.02,288.62,15495.0,6.4535e-05,14.735,16.598,64.302,39.8,92.179,433.59,0.091954,56.22,0.074501,supercritical,CO2,C124389,carbon-dioxide,304.18,73.8,10.6,0.09433962264150944,1.2,3.9108401084010844,0.000684071
365.02,291.08,15564.0,6.4252e-05,14.707,16.577,64.202,39.794,91.831,436.39,0.09004,56.599,0.074856,supercritical,CO2,C124389,carbon-dioxide,304.18,73.8,10.6,0.09433962264150944,1.2,3.944173441734417,0.0006810711999999998
365.02,293.54,15631.0,6.3976e-05,14.679,16.557,64.104,39.788,91.49,439.18,0.088177,56.975,0.075209,supercritical,CO2,C124389,carbon-dioxide,304.18,73.8,10.6,0.09433962264150944,1.2,3.9775067750677513,0.0006781455999999999
365.02,296.0,15697.0,6.3707e-05,14.652,16.537,64.007,39.783,91.156,441.96,0.086362,57.348,0.075558,supercritical,CO2,C124389,carbon-dioxide,304.18,73.8,10.6,0.09433962264150944,1.2,4.0108401084010845,0.0006752942
365.02,298.46,15762.0,6.3444e-05,14.625,16.518,63.912,39.777,90.829,444.71,0.084594,57.717,0.075904,supercritical,CO2,C124389,carbon-dioxide,304.18,73.8,10.6,0.09433962264150944,1.2,4.044173441734417,0.0006725063999999999
365.02,300.92,15826.0,6.3188e-05,14.598,16.5,63.818,39.772,90.507,447.45,0.08287,58.084,0.076247,supercritical,CO2,C124389,carbon-dioxide,304.18,73.8,10.6,0.09433962264150944,1.2,4.077506775067751,0.0006697928000000001
365.02,303.37,15889.0,6.2937e-05,14.572,16.481,63.726,39.767,90.192,450.17,0.08119,58.447,0.076587,supercritical,CO2,C124389,carbon-dioxide,304.18,73.8,10.6,0.09433962264150944,1.2,4.11070460704607,0.0006671321999999999
365.02,305.83,15951.0,6.2693e-05,14.546,16.464,63.635,39.763,89.884,452.87,0.079551,58.807,0.076924,supercritical,CO2,C124389,carbon-dioxide,304.18,73.8,10.6,0.09433962264150944,1.2,4.144037940379404,0.0006645458
365.02,308.29,16012.0,6.2453e-05,14.521,16.446,63.545,39.758,89.581,455.55,0.077952,59.164,0.077259,supercritical,CO2,C124389,carbon-dioxide,304.18,73.8,10.6,0.09433962264150944,1.2,4.177371273712738,0.0006620018
365.02,310.75,16072.0,6.2219e-05,14.496,16.429,63.456,39.754,89.283,458.22,0.076392,59.519,0.07759,supercritical,CO2,C124389,carbon-dioxide,304.18,73.8,10.6,0.09433962264150944,1.2,4.210704607046071,0.0006595213999999999
365.02,313.21,16131.0,6.1991e-05,14.471,16.413,63.369,39.75,88.992,460.87,0.074869,59.87,0.077918,supercritical,CO2,C124389,carbon-dioxide,304.18,73.8,10.6,0.09433962264150944,1.2,4.244037940379403,0.0006571045999999999
365.02,315.67,16190.0,6.1767e-05,14.447,16.396,63.283,39.746,88.706,463.51,0.073383,60.219,0.078244,supercritical,CO2,C124389,carbon-dioxide,304.18,73.8,10.6,0.09433962264150944,1.2,4.277371273712737,0.0006547301999999999
365.02,318.12,16248.0,6.1548e-05,14.423,16.381,63.198,39.742,88.425,466.12,0.071931,60.565,0.078567,supercritical,CO2,C124389,carbon-dioxide,304.18,73.8,10.6,0.09433962264150944,1.2,4.310569105691057,0.0006524088
365.02,320.58,16304.0,6.1333e-05,14.399,16.365,63.114,39.739,88.15,468.73,0.070513,60.909,0.078888,supercritical,CO2,C124389,carbon-dioxide,304.18,73.8,10.6,0.09433962264150944,1.2,4.34390243902439,0.0006501298
365.02,323.04,16360.0,6.1123e-05,14.375,16.35,63.032,39.736,87.88,471.31,0.069128,61.25,0.079206,supercritical,CO2,C124389,carbon-dioxide,304.18,73.8,10.6,0.09433962264150944,1.2,4.377235772357724,0.0006479038
365.02,325.5,16416.0,6.0918e-05,14.352,16.335,62.95,39.733,87.615,473.88,0.067774,61.588,0.079522,supercritical,CO2,C124389,carbon-dioxide,304.18,73.8,10.6,0.09433962264150944,1.2,4.410569105691057,0.0006457308
365.02,327.96,16470.0,6.0716e-05,14.33,16.321,62.87,39.73,87.355,476.44,0.066451,61.924,0.079835,supercritical,CO2,C124389,carbon-dioxide,304.18,73.8,10.6,0.09433962264150944,1.2,4.44390243902439,0.0006435896
365.02,330.42,16524.0,6.0519e-05,14.307,16.307,62.79,39.727,87.099,478.97,0.065157,62.257,0.080145,supercritical,CO2,C124389,carbon-dioxide,304.18,73.8,10.6,0.09433962264150944,1.2,4.477235772357724,0.0006415014
365.02,332.87,16577.0,6.0325e-05,14.285,16.293,62.712,39.724,86.849,481.5,0.063892,62.588,0.080454,supercritical,CO2,C124389,carbon-dioxide,304.18,73.8,10.6,0.09433962264150944,1.2,4.510433604336043,0.000639445
365.02,335.33,16629.0,6.0135e-05,14.263,16.279,62.634,39.722,86.603,484.0,0.062655,62.917,0.08076,supercritical,CO2,C124389,carbon-dioxide,304.18,73.8,10.6,0.09433962264150944,1.2,4.543766937669377,0.0006374309999999999
365.02,337.79,16681.0,5.9949e-05,14.241,16.266,62.558,39.72,86.361,486.5,0.061444,63.243,0.081064,supercritical,CO2,C124389,carbon-dioxide,304.18,73.8,10.6,0.09433962264150944,1.2,4.577100271002711,0.0006354593999999999
365.02,340.25,16732.0,5.9767e-05,14.22,16.253,62.482,39.717,86.124,488.97,0.06026,63.568,0.081365,supercritical,CO2,C124389,carbon-dioxide,304.18,73.8,10.6,0.09433962264150944,1.2,4.610433604336044,0.0006335302
365.02,342.71,16782.0,5.9587e-05,14.199,16.241,62.407,39.715,85.892,491.44,0.059101,63.889,0.081665,supercritical,CO2,C124389,carbon-dioxide,304.18,73.8,10.6,0.09433962264150944,1.2,4.643766937669376,0.0006316221999999999
365.02,345.17,16832.0,5.9411e-05,14.178,16.228,62.333,39.714,85.663,493.88,0.057966,64.209,0.081962,supercritical,CO2,C124389,carbon-dioxide,304.18,73.8,10.6,0.09433962264150944,1.2,4.67710027100271,0.0006297566
365.02,347.62,16881.0,5.9239e-05,14.157,16.216,62.26,39.712,85.439,496.32,0.056855,64.527,0.082258,supercritical,CO2,C124389,carbon-dioxide,304.18,73.8,10.6,0.09433962264150944,1.2,4.71029810298103,0.0006279333999999999
365.02,350.08,16929.0,5.9069e-05,14.137,16.205,62.188,39.71,85.218,498.74,0.055767,64.842,0.082551,supercritical,CO2,C124389,carbon-dioxide,304.18,73.8,10.6,0.09433962264150944,1.2,4.743631436314363,0.0006261314
365.02,352.54,16977.0,5.8902e-05,14.116,16.193,62.117,39.709,85.002,501.14,0.054701,65.156,0.082842,supercritical,CO2,C124389,carbon-dioxide,304.18,73.8,10.6,0.09433962264150944,1.2,4.776964769647697,0.0006243612
365.02,355.0,17025.0,5.8738e-05,14.096,16.182,62.046,39.708,84.789,503.53,0.053657,65.467,0.083131,supercritical,CO2,C124389,carbon-dioxide,304.18,73.8,10.6,0.09433962264150944,1.2,4.81029810298103,0.0006226227999999999
365.02,357.46,17071.0,5.8578e-05,14.077,16.171,61.976,39.707,84.58,505.91,0.052635,65.776,0.083419,supercritical,CO2,C124389,carbon-dioxide,304.18,73.8,10.6,0.09433962264150944,1.2,4.843631436314363,0.0006209268
365.02,359.92,17118.0,5.8419e-05,14.057,16.16,61.907,39.706,84.375,508.27,0.051632,66.084,0.083704,supercritical,CO2,C124389,carbon-dioxide,304.18,73.8,10.6,0.09433962264150944,1.2,4.876964769647697,0.0006192413999999999
365.02,362.37,17163.0,5.8264e-05,14.038,16.149,61.839,39.705,84.174,510.62,0.05065,66.39,0.083988,supercritical,CO2,C124389,carbon-dioxide,304.18,73.8,10.6,0.09433962264150944,1.2,4.910162601626016,0.0006175983999999999
365.02,364.83,17208.0,5.8111e-05,14.019,16.139,61.771,39.704,83.976,512.95,0.049687,66.693,0.08427,supercritical,CO2,C124389,carbon-dioxide,304.18,73.8,10.6,0.09433962264150944,1.2,4.9434959349593495,0.0006159766
365.02,367.29,17253.0,5.7961e-05,14.0,16.129,61.705,39.703,83.781,515.27,0.048742,66.995,0.08455,supercritical,CO2,C124389,carbon-dioxide,304.18,73.8,10.6,0.09433962264150944,1.2,4.976829268292684,0.0006143866
365.02,369.75,17297.0,5.7813e-05,13.981,16.119,61.638,39.703,83.59,517.58,0.047816,67.295,0.084828,supercritical,CO2,C124389,carbon-dioxide,304.18,73.8,10.6,0.09433962264150944,1.2,5.010162601626017,0.0006128177999999999
365.02,372.21,17341.0,5.7667e-05,13.963,16.109,61.573,39.702,83.402,519.87,0.046908,67.594,0.085105,supercritical,CO2,C124389,carbon-dioxide,304.18,73.8,10.6,0.09433962264150944,1.2,5.043495934959349,0.0006112702
365.02,374.67,17384.0,5.7524e-05,13.944,16.099,61.508,39.702,83.217,522.16,0.046017,67.89,0.08538,supercritical,CO2,C124389,carbon-dioxide,304.18,73.8,10.6,0.09433962264150944,1.2,5.076829268292683,0.0006097543999999999
365.02,377.12,17427.0,5.7383e-05,13.926,16.09,61.444,39.702,83.035,524.42,0.045143,68.185,0.085653,supercritical,CO2,C124389,carbon-dioxide,304.18,73.8,10.6,0.09433962264150944,1.2,5.110027100271003,0.0006082597999999999
365.02,379.58,17469.0,5.7244e-05,13.908,16.081,61.38,39.702,82.857,526.68,0.044285,68.479,0.085924,supercritical,CO2,C124389,carbon-dioxide,304.18,73.8,10.6,0.09433962264150944,1.2,5.143360433604336,0.0006067864
365.02,382.04,17511.0,5.7107e-05,13.89,16.072,61.317,39.702,82.681,528.92,0.043444,68.77,0.086194,supercritical,CO2,C124389,carbon-dioxide,304.18,73.8,10.6,0.09433962264150944,1.2,5.17669376693767,0.0006053342
365.02,384.5,17552.0,5.6973e-05,13.873,16.063,61.255,39.702,82.508,531.15,0.042617,69.06,0.086463,supercritical,CO2,C124389,carbon-dioxide,304.18,73.8,10.6,0.09433962264150944,1.2,5.210027100271003,0.0006039137999999999
365.02,386.96,17593.0,5.684e-05,13.855,16.055,61.193,39.702,82.339,533.37,0.041806,69.349,0.08673,supercritical,CO2,C124389,carbon-dioxide,304.18,73.8,10.6,0.09433962264150944,1.2,5.243360433604336,0.0006025039999999999
365.02,389.42,17634.0,5.671e-05,13.838,16.046,61.132,39.702,82.172,535.58,0.041009,69.636,0.086995,supercritical,CO2,C124389,carbon-dioxide,304.18,73.8,10.6,0.09433962264150944,1.2,5.27669376693767,0.0006011259999999999
365.02,391.88,17674.0,5.6581e-05,13.821,16.038,61.071,39.703,82.007,537.77,0.040227,69.921,0.087259,supercritical,CO2,C124389,carbon-dioxide,304.18,73.8,10.6,0.09433962264150944,1.2,5.310027100271003,0.0005997585999999999
365.02,394.33,17713.0,5.6454e-05,13.804,16.03,61.011,39.703,81.846,539.96,0.039459,70.205,0.087521,supercritical,CO2,C124389,carbon-dioxide,304.18,73.8,10.6,0.09433962264150944,1.2,5.343224932249322,0.0005984123999999999
365.02,396.79,17753.0,5.6329e-05,13.787,16.022,60.952,39.704,81.687,542.13,0.038704,70.487,0.087782,supercritical,CO2,C124389,carbon-dioxide,304.18,73.8,10.6,0.09433962264150944,1.2,5.3765582655826565,0.0005970874
365.02,399.25,17792.0,5.6206e-05,13.771,16.015,60.893,39.704,81.531,544.28,0.037963,70.768,0.088042,supercritical,CO2,C124389,carbon-dioxide,304.18,73.8,10.6,0.09433962264150944,1.2,5.40989159891599,0.0005957835999999999
365.02,401.71,17830.0,5.6085e-05,13.754,16.007,60.834,39.705,81.377,546.43,0.037234,71.048,0.0883,supercritical,CO2,C124389,carbon-dioxide,304.18,73.8,10.6,0.09433962264150944,1.2,5.443224932249322,0.000594501
365.02,404.17,17868.0,5.5965e-05,13.738,16.0,60.777,39.706,81.225,548.57,0.036518,71.326,0.088557,supercritical,CO2,C124389,carbon-dioxide,304.18,73.8,10.6,0.09433962264150944,1.2,5.476558265582656,0.0005932289999999999
365.02,406.63,17906.0,5.5847e-05,13.722,15.993,60.719,39.707,81.076,550.69,0.035814,71.603,0.088812,supercritical,CO2,C124389,carbon-dioxide,304.18,73.8,10.6,0.09433962264150944,1.2,5.509891598915989,0.0005919782
365.02,409.08,17944.0,5.573e-05,13.706,15.986,60.662,39.708,80.93,552.81,0.035123,71.878,0.089066,supercritical,CO2,C124389,carbon-dioxide,304.18,73.8,10.6,0.09433962264150944,1.2,5.543089430894309,0.0005907379999999999
365.02,411.54,17981.0,5.5615e-05,13.69,15.979,60.606,39.709,80.785,554.91,0.034443,72.152,0.089319,supercritical,CO2,C124389,carbon-dioxide,304.18,73.8,10.6,0.09433962264150944,1.2,5.576422764227643,0.0005895189999999999
365.02,414.0,18017.0,5.5502e-05,13.674,15.972,60.55,39.71,80.643,557.0,0.033774,72.425,0.08957,supercritical,CO2,C124389,carbon-dioxide,304.18,73.8,10.6,0.09433962264150944,1.2,5.609756097560976,0.0005883211999999999
365.02,416.46,18054.0,5.539e-05,13.658,15.965,60.494,39.711,80.503,559.08,0.033116,72.696,0.089821,supercritical,CO2,C124389,carbon-dioxide,304.18,73.8,10.6,0.09433962264150944,1.2,5.6430894308943085,0.000587134
365.02,418.92,18090.0,5.528e-05,13.643,15.959,60.439,39.712,80.365,561.15,0.03247,72.967,0.09007,supercritical,CO2,C124389,carbon-dioxide,304.18,73.8,10.6,0.09433962264150944,1.2,5.676422764227643,0.000585968
365.02,421.38,18126.0,5.5171e-05,13.628,15.952,60.385,39.714,80.23,563.21,0.031833,73.236,0.090317,supercritical,CO2,C124389,carbon-dioxide,304.18,73.8,10.6,0.09433962264150944,1.2,5.709756097560976,0.0005848126
365.02,423.83,18161.0,5.5063e-05,13.612,15.946,60.331,39.715,80.096,565.26,0.031208,73.503,0.090564,supercritical,CO2,C124389,carbon-dioxide,304.18,73.8,10.6,0.09433962264150944,1.2,5.742953929539295,0.0005836677999999999
365.02,426.29,18196.0,5.4957e-05,13.597,15.94,60.277,39.716,79.964,567.3,0.030592,73.77,0.090809,supercritical,CO2,C124389,carbon-dioxide,304.18,73.8,10.6,0.09433962264150944,1.2,5.776287262872629,0.0005825442
365.02,428.75,18231.0,5.4852e-05,13.582,15.934,60.224,39.718,79.835,569.33,0.029986,74.035,0.091054,supercritical,CO2,C124389,carbon-dioxide,304.18,73.8,10.6,0.09433962264150944,1.2,5.809620596205963,0.0005814311999999999
365.02,431.21,18265.0,5.4748e-05,13.568,15.928,60.171,39.72,79.707,571.34,0.02939,74.299,0.091297,supercritical,CO2,C124389,carbon-dioxide,304.18,73.8,10.6,0.09433962264150944,1.2,5.842953929539295,0.0005803287999999999
365.02,433.67,18300.0,5.4646e-05,13.553,15.923,60.118,39.721,79.581,573.35,0.028803,74.562,0.091538,supercritical,CO2,C124389,carbon-dioxide,304.18,73.8,10.6,0.09433962264150944,1.2,5.876287262872629,0.0005792476
365.02,436.13,18333.0,5.4545e-05,13.538,15.917,60.066,39.723,79.457,575.35,0.028225,74.824,0.091779,supercritical,CO2,C124389,carbon-dioxide,304.18,73.8,10.6,0.09433962264150944,1.2,5.909620596205962,0.0005781769999999999
365.02,438.58,18367.0,5.4445e-05,13.524,15.912,60.015,39.725,79.335,577.34,0.027656,75.085,0.092019,supercritical,CO2,C124389,carbon-dioxide,304.18,73.8,10.6,0.09433962264150944,1.2,5.942818428184282,0.0005771169999999999
365.02,441.04,18400.0,5.4347e-05,13.509,15.906,59.963,39.726,79.214,579.32,0.027096,75.345,0.092258,supercritical,CO2,C124389,carbon-dioxide,304.18,73.8,10.6,0.09433962264150944,1.2,5.976151761517616,0.0005760782
365.02,443.5,18433.0,5.4249e-05,13.495,15.901,59.912,39.728,79.095,581.29,0.026545,75.603,0.092495,supercritical,CO2,C124389,carbon-dioxide,304.18,73.8,10.6,0.09433962264150944,1.2,6.009485094850949,0.0005750394
365.02,445.96,18466.0,5.4153e-05,13.481,15.896,59.862,39.73,78.978,583.25,0.026002,75.861,0.092732,supercritical,CO2,C124389,carbon-dioxide,304.18,73.8,10.6,0.09433962264150944,1.2,6.042818428184281,0.0005740218