Temperature (K),Pressure (bar),Density (mol/m3),Volume (m3/mol),Internal Energy (kJ/mol),Enthalpy (kJ/mol),Entropy (J/mol*K),Cv (J/mol*K),Cp (J/mol*K),Sound Spd. (m/s),Joule-Thomson (K/bar),Viscosity (uPa*s),Therm. Cond. (W/m*K),Phase,substance,substance_id,substance_name,Tc,Pc,rhoc,Vmc,Tr,Pr,Vmr
711.7,1406.5,38571.0,2.5926e-05,31.541,35.188,70.5,49.085,83.176,1173.8,0.0089468,86.231,0.55404,supercritical,H2O,C7732185,water,647.0,220.64,17.9,0.0558659217877095,1.1,6.3746374184191446,0.00046407539999999996
711.7,1413.9,38621.0,2.5892e-05,31.521,35.182,70.466,49.084,83.058,1176.6,0.0087542,86.379,0.55502,supercritical,H2O,C7732185,water,647.0,220.64,17.9,0.0558659217877095,1.1,6.408176214648297,0.00046346679999999994
711.7,1421.2,38671.0,2.5859e-05,31.502,35.177,70.432,49.083,82.941,1179.4,0.008564,86.526,0.556,supercritical,H2O,C7732185,water,647.0,220.64,17.9,0.0558659217877095,1.1,6.441261783901378,0.0004628761
711.7,1428.6,38720.0,2.5826e-05,31.482,35.172,70.398,49.083,82.826,1182.3,0.008376,86.673,0.55697,supercritical,H2O,C7732185,water,647.0,220.64,17.9,0.0558659217877095,1.1,6.4748005801305295,0.00046228539999999997
711.7,1435.9,38770.0,2.5793e-05,31.463,35.167,70.364,49.082,82.712,1185.1,0.0081902,86.819,0.55794,supercritical,H2O,C7732185,water,647.0,220.64,17.9,0.0558659217877095,1.1,6.507886149383612,0.00046169469999999993
711.7,1443.3,38818.0,2.5761e-05,31.444,35.162,70.331,49.081,82.6,1187.8,0.0080067,86.964,0.5589,supercritical,H2O,C7732185,water,647.0,220.64,17.9,0.0558659217877095,1.1,6.541424945612763,0.0004611219
711.7,1450.6,38867.0,2.5729e-05,31.425,35.157,70.297,49.081,82.488,1190.6,0.0078253,87.109,0.55986,supercritical,H2O,C7732185,water,647.0,220.64,17.9,0.0558659217877095,1.1,6.574510514865845,0.00046054909999999996
711.7,1458.0,38915.0,2.5697e-05,31.406,35.152,70.264,49.08,82.378,1193.4,0.007646,87.254,0.56082,supercritical,H2O,C7732185,water,647.0,220.64,17.9,0.0558659217877095,1.1,6.608049311094997,0.0004599763
711.7,1465.3,38963.0,2.5665e-05,31.387,35.148,70.231,49.08,82.269,1196.1,0.0074689,87.397,0.56178,supercritical,H2O,C7732185,water,647.0,220.64,17.9,0.0558659217877095,1.1,6.641134880348078,0.00045940349999999995
711.7,1472.7,39011.0,2.5634e-05,31.368,35.143,70.199,49.079,82.162,1198.9,0.0072937,87.541,0.56273,supercritical,H2O,C7732185,water,647.0,220.64,17.9,0.0558659217877095,1.1,6.67467367657723,0.00045884859999999997
711.7,1480.0,39058.0,2.5603e-05,31.35,35.139,70.166,49.079,82.055,1201.6,0.0071206,87.683,0.56368,supercritical,H2O,C7732185,water,647.0,220.64,17.9,0.0558659217877095,1.1,6.707759245830312,0.00045829369999999994
711.7,1487.4,39105.0,2.5572e-05,31.331,35.135,70.134,49.078,81.95,1204.3,0.0069495,87.826,0.56462,supercritical,H2O,C7732185,water,647.0,220.64,17.9,0.0558659217877095,1.1,6.741298042059464,0.00045773879999999996
711.7,1494.7,39152.0,2.5542e-05,31.313,35.131,70.101,49.078,81.846,1207.0,0.0067803,87.967,0.56557,supercritical,H2O,C7732185,water,647.0,220.64,17.9,0.0558659217877095,1.1,6.774383611312546,0.00045720179999999996
711.7,1502.1,39198.0,2.5511e-05,31.295,35.127,70.069,49.078,81.743,1209.7,0.006613,88.109,0.56651,supercritical,H2O,C7732185,water,647.0,220.64,17.9,0.0558659217877095,1.1,6.807922407541697,0.0004566469
711.7,1509.4,39245.0,2.5481e-05,31.277,35.123,70.038,49.078,81.641,1212.4,0.0064475,88.249,0.56744,supercritical,H2O,C7732185,water,647.0,220.64,17.9,0.0558659217877095,1.1,6.84100797679478,0.00045610989999999993
711.7,1516.8,39291.0,2.5451e-05,31.259,35.119,70.006,49.078,81.541,1215.1,0.0062839,88.389,0.56838,supercritical,H2O,C7732185,water,647.0,220.64,17.9,0.0558659217877095,1.1,6.874546773023931,0.0004555729
711.7,1524.1,39337.0,2.5422e-05,31.241,35.115,69.974,49.078,81.441,1217.7,0.0061222,88.529,0.56931,supercritical,H2O,C7732185,water,647.0,220.64,17.9,0.0558659217877095,1.1,6.9076323422770125,0.0004550538
711.7,1531.5,39382.0,2.5392e-05,31.223,35.112,69.943,49.078,81.342,1220.4,0.0059621,88.668,0.57023,supercritical,H2O,C7732185,water,647.0,220.64,17.9,0.0558659217877095,1.1,6.9411711385061645,0.00045451679999999997
711.7,1538.8,39427.0,2.5363e-05,31.205,35.108,69.912,49.078,81.245,1223.0,0.0058039,88.807,0.57116,supercritical,H2O,C7732185,water,647.0,220.64,17.9,0.0558659217877095,1.1,6.974256707759246,0.0004539977
711.7,1546.1,39472.0,2.5334e-05,31.188,35.105,69.881,49.078,81.148,1225.6,0.0056474,88.945,0.57208,supercritical,H2O,C7732185,water,647.0,220.64,17.9,0.0558659217877095,1.1,7.007342277012328,0.00045347859999999993
711.7,1553.5,39517.0,2.5305e-05,31.17,35.101,69.85,49.078,81.053,1228.3,0.0054925,89.083,0.573,supercritical,H2O,C7732185,water,647.0,220.64,17.9,0.0558659217877095,1.1,7.04088107324148,0.00045295949999999997
711.7,1560.8,39562.0,2.5277e-05,31.153,35.098,69.82,49.078,80.958,1230.9,0.0053393,89.22,0.57392,supercritical,H2O,C7732185,water,647.0,220.64,17.9,0.0558659217877095,1.1,7.073966642494561,0.0004524582999999999
711.7,1568.2,39606.0,2.5249e-05,31.136,35.095,69.789,49.078,80.865,1233.5,0.0051878,89.357,0.57483,supercritical,H2O,C7732185,water,647.0,220.64,17.9,0.0558659217877095,1.1,7.107505438723713,0.0004519571
711.7,1575.5,39650.0,2.5221e-05,31.118,35.092,69.759,49.079,80.772,1236.0,0.0050378,89.493,0.57574,supercritical,H2O,C7732185,water,647.0,220.64,17.9,0.0558659217877095,1.1,7.140591007976795,0.0004514559
711.7,1582.9,39694.0,2.5193e-05,31.101,35.089,69.729,49.079,80.68,1238.6,0.0048895,89.629,0.57665,supercritical,H2O,C7732185,water,647.0,220.64,17.9,0.0558659217877095,1.1,7.174129804205947,0.00045095469999999996
711.7,1590.2,39737.0,2.5165e-05,31.084,35.086,69.699,49.079,80.59,1241.2,0.0047427,89.765,0.57756,supercritical,H2O,C7732185,water,647.0,220.64,17.9,0.0558659217877095,1.1,7.207215373459029,0.00045045349999999997
711.7,1597.6,39781.0,2.5138e-05,31.067,35.083,69.669,49.08,80.5,1243.7,0.0045974,89.899,0.57846,supercritical,H2O,C7732185,water,647.0,220.64,17.9,0.0558659217877095,1.1,7.24075416968818,0.00044997019999999996
711.7,1604.9,39824.0,2.5111e-05,31.051,35.081,69.639,49.08,80.411,1246.3,0.0044536,90.034,0.57936,supercritical,H2O,C7732185,water,647.0,220.64,17.9,0.0558659217877095,1.1,7.273839738941263,0.0004494869
711.7,1612.3,39867.0,2.5084e-05,31.034,35.078,69.61,49.081,80.323,1248.8,0.0043114,90.168,0.58026,supercritical,H2O,C7732185,water,647.0,220.64,17.9,0.0558659217877095,1.1,7.307378535170414,0.00044900359999999994
711.7,1619.6,39910.0,2.5057e-05,31.017,35.076,69.58,49.081,80.235,1251.3,0.0041705,90.302,0.58116,supercritical,H2O,C7732185,water,647.0,220.64,17.9,0.0558659217877095,1.1,7.3404641044234955,0.0004485203
711.7,1627.0,39952.0,2.503e-05,31.001,35.073,69.551,49.082,80.149,1253.8,0.0040311,90.435,0.58205,supercritical,H2O,C7732185,water,647.0,220.64,17.9,0.0558659217877095,1.1,7.3740029006526475,0.000448037
711.7,1634.3,39994.0,2.5004e-05,30.984,35.071,69.522,49.082,80.064,1256.3,0.0038932,90.568,0.58294,supercritical,H2O,C7732185,water,647.0,220.64,17.9,0.0558659217877095,1.1,7.407088469905729,0.00044757159999999995
711.7,1641.7,40036.0,2.4977e-05,30.968,35.069,69.493,49.083,79.979,1258.8,0.0037566,90.7,0.58383,supercritical,H2O,C7732185,water,647.0,220.64,17.9,0.0558659217877095,1.1,7.440627266134881,0.0004470883
711.7,1649.0,40078.0,2.4951e-05,30.952,35.066,69.464,49.084,79.895,1261.3,0.0036214,90.832,0.58471,supercritical,H2O,C7732185,water,647.0,220.64,17.9,0.0558659217877095,1.1,7.473712835387963,0.00044662289999999996
711.7,1656.4,40120.0,2.4925e-05,30.936,35.064,69.435,49.085,79.812,1263.8,0.0034875,90.963,0.5856,supercritical,H2O,C7732185,water,647.0,220.64,17.9,0.0558659217877095,1.1,7.507251631617114,0.0004461575
711.7,1663.7,40161.0,2.49e-05,30.92,35.062,69.407,49.085,79.73,1266.3,0.003355,91.095,0.58648,supercritical,H2O,C7732185,water,647.0,220.64,17.9,0.0558659217877095,1.1,7.540337200870196,0.00044570999999999993
711.7,1671.1,40202.0,2.4874e-05,30.904,35.06,69.378,49.086,79.648,1268.7,0.0032238,91.225,0.58736,supercritical,H2O,C7732185,water,647.0,220.64,17.9,0.0558659217877095,1.1,7.573875997099347,0.00044524459999999996
711.7,1678.4,40243.0,2.4849e-05,30.888,35.059,69.35,49.087,79.567,1271.2,0.0030939,91.355,0.58823,supercritical,H2O,C7732185,water,647.0,220.64,17.9,0.0558659217877095,1.1,7.60696156635243,0.00044479709999999996
711.7,1685.8,40284.0,2.4824e-05,30.872,35.057,69.322,49.088,79.487,1273.6,0.0029652,91.485,0.58911,supercritical,H2O,C7732185,water,647.0,220.64,17.9,0.0558659217877095,1.1,7.640500362581581,0.0004443496
711.7,1693.1,40325.0,2.4799e-05,30.856,35.055,69.294,49.089,79.408,1276.0,0.0028378,91.615,0.58998,supercritical,H2O,C7732185,water,647.0,220.64,17.9,0.0558659217877095,1.1,7.673585931834663,0.0004439021
711.7,1700.5,40365.0,2.4774e-05,30.841,35.054,69.266,49.089,79.33,1278.4,0.0027116,91.744,0.59085,supercritical,H2O,C7732185,water,647.0,220.64,17.9,0.0558659217877095,1.1,7.707124728063815,0.00044345459999999996
711.7,1707.8,40406.0,2.4749e-05,30.825,35.052,69.238,49.09,79.252,1280.9,0.0025866,91.873,0.59172,supercritical,H2O,C7732185,water,647.0,220.64,17.9,0.0558659217877095,1.1,7.740210297316897,0.00044300709999999996
711.7,1715.2,40446.0,2.4725e-05,30.81,35.051,69.211,49.091,79.175,1283.3,0.0024629,92.001,0.59258,supercritical,H2O,C7732185,water,647.0,220.64,17.9,0.0558659217877095,1.1,7.773749093546049,0.0004425775
711.7,1722.5,40485.0,2.47e-05,30.794,35.049,69.183,49.092,79.098,1285.7,0.0023403,92.129,0.59345,supercritical,H2O,C7732185,water,647.0,220.64,17.9,0.0558659217877095,1.1,7.8068346627991305,0.00044213
711.7,1729.9,40525.0,2.4676e-05,30.779,35.048,69.156,49.093,79.023,1288.0,0.0022189,92.256,0.59431,supercritical,H2O,C7732185,water,647.0,220.64,17.9,0.0558659217877095,1.1,7.8403734590282825,0.0004417004
711.7,1737.2,40565.0,2.4652e-05,30.764,35.047,69.129,49.094,78.948,1290.4,0.0020986,92.384,0.59517,supercritical,H2O,C7732185,water,647.0,220.64,17.9,0.0558659217877095,1.1,7.873459028281364,0.00044127079999999996
711.7,1744.6,40604.0,2.4628e-05,30.749,35.045,69.102,49.095,78.873,1292.8,0.0019794,92.51,0.59602,supercritical,H2O,C7732185,water,647.0,220.64,17.9,0.0558659217877095,1.1,7.906997824510515,0.00044084119999999994
711.7,1751.9,40643.0,2.4604e-05,30.734,35.044,69.075,49.097,78.8,1295.1,0.0018614,92.637,0.59688,supercritical,H2O,C7732185,water,647.0,220.64,17.9,0.0558659217877095,1.1,7.940083393763597,0.00044041159999999997
711.7,1759.3,40682.0,2.4581e-05,30.719,35.043,69.048,49.098,78.727,1297.5,0.0017445,92.763,0.59773,supercritical,H2O,C7732185,water,647.0,220.64,17.9,0.0558659217877095,1.1,7.973622189992748,0.0004399999
711.7,1766.6,40721.0,2.4558e-05,30.704,35.042,69.021,49.099,78.654,1299.8,0.0016286,92.889,0.59858,supercritical,H2O,C7732185,water,647.0,220.64,17.9,0.0558659217877095,1.1,8.006707759245831,0.0004395882
711.7,1773.9,40759.0,2.4534e-05,30.689,35.041,68.994,49.1,78.583,1302.2,0.0015138,93.014,0.59943,supercritical,H2O,C7732185,water,647.0,220.64,17.9,0.0558659217877095,1.1,8.039793328498913,0.0004391586
711.7,1781.3,40798.0,2.4511e-05,30.674,35.04,68.968,49.101,78.511,1304.5,0.0014001,93.139,0.60027,supercritical,H2O,C7732185,water,647.0,220.64,17.9,0.0558659217877095,1.1,8.073332124728065,0.0004387469
711.7,1788.6,40836.0,2.4488e-05,30.66,35.04,68.942,49.102,78.441,1306.8,0.0012874,93.263,0.60112,supercritical,H2O,C7732185,water,647.0,220.64,17.9,0.0558659217877095,1.1,8.106417693981145,0.0004383352
711.7,1796.0,40874.0,2.4465e-05,30.645,35.039,68.915,49.104,78.371,1309.1,0.0011757,93.388,0.60196,supercritical,H2O,C7732185,water,647.0,220.64,17.9,0.0558659217877095,1.1,8.139956490210297,0.00043792349999999996
711.7,1803.3,40912.0,2.4443e-05,30.63,35.038,68.889,49.105,78.302,1311.4,0.001065,93.512,0.6028,supercritical,H2O,C7732185,water,647.0,220.64,17.9,0.0558659217877095,1.1,8.173042059463379,0.00043752969999999995
711.7,1810.7,40950.0,2.442e-05,30.616,35.038,68.863,49.106,78.233,1313.7,0.00095532,93.635,0.60364,supercritical,H2O,C7732185,water,647.0,220.64,17.9,0.0558659217877095,1.1,8.20658085569253,0.00043711799999999996
711.7,1818.0,40987.0,2.4398e-05,30.602,35.037,68.837,49.108,78.165,1316.0,0.00084662,93.758,0.60447,supercritical,H2O,C7732185,water,647.0,220.64,17.9,0.0558659217877095,1.1,8.239666424945613,0.00043672419999999995
711.7,1825.4,41025.0,2.4376e-05,30.587,35.037,68.811,49.109,78.097,1318.3,0.00073889,93.881,0.60531,supercritical,H2O,C7732185,water,647.0,220.64,17.9,0.0558659217877095,1.1,8.273205221174765,0.00043633039999999994
711.7,1832.7,41062.0,2.4353e-05,30.573,35.036,68.786,49.11,78.03,1320.6,0.00063211,94.004,0.60614,supercritical,H2O,C7732185,water,647.0,220.64,17.9,0.0558659217877095,1.1,8.306290790427846,0.00043591869999999995
711.7,1840.1,41099.0,2.4332e-05,30.559,35.036,68.76,49.112,77.964,1322.8,0.00052628,94.126,0.60697,supercritical,H2O,C7732185,water,647.0,220.64,17.9,0.0558659217877095,1.1,8.339829586656998,0.0004355428
711.7,1847.4,41136.0,2.431e-05,30.545,35.036,68.735,49.113,77.898,1325.1,0.00042137,94.248,0.6078,supercritical,H2O,C7732185,water,647.0,220.64,17.9,0.0558659217877095,1.1,8.37291515591008,0.00043514899999999996
711.7,1854.8,41173.0,2.4288e-05,30.531,35.036,68.709,49.115,77.832,1327.4,0.00031739,94.369,0.60863,supercritical,H2O,C7732185,water,647.0,220.64,17.9,0.0558659217877095,1.1,8.406453952139232,0.00043475519999999995
711.7,1862.1,41209.0,2.4266e-05,30.517,35.035,68.684,49.116,77.768,1329.6,0.0002143,94.491,0.60945,supercritical,H2O,C7732185,water,647.0,220.64,17.9,0.0558659217877095,1.1,8.439539521392314,0.0004343614
711.7,1869.5,41246.0,2.4245e-05,30.503,35.035,68.659,49.117,77.703,1331.8,0.00011211,94.612,0.61027,supercritical,H2O,C7732185,water,647.0,220.64,17.9,0.0558659217877095,1.1,8.473078317621466,0.00043398549999999997
711.7,1876.8,41282.0,2.4224e-05,30.489,35.035,68.634,49.119,77.64,1334.1,1.0804e-05,94.732,0.61109,supercritical,H2O,C7732185,water,647.0,220.64,17.9,0.0558659217877095,1.1,8.506163886874548,0.0004336096
711.7,1884.2,41318.0,2.4202e-05,30.475,35.035,68.609,49.12,77.576,1336.3,-8.9636e-05,94.852,0.61191,supercritical,H2O,C7732185,water,647.0,220.64,17.9,0.0558659217877095,1.1,8.5397026831037,0.0004332158
711.7,1891.5,41354.0,2.4181e-05,30.461,35.035,68.584,49.122,77.514,1338.5,-0.00018922,94.972,0.61273,supercritical,H2O,C7732185,water,647.0,220.64,17.9,0.0558659217877095,1.1,8.57278825235678,0.0004328399
711.7,1898.9,41390.0,2.416e-05,30.448,35.036,68.559,49.123,77.451,1340.7,-0.00028795,95.092,0.61355,supercritical,H2O,C7732185,water,647.0,220.64,17.9,0.0558659217877095,1.1,8.606327048585932,0.00043246399999999997
711.7,1906.2,41426.0,2.414e-05,30.434,35.036,68.534,49.125,77.39,1342.9,-0.00038585,95.211,0.61436,supercritical,H2O,C7732185,water,647.0,220.64,17.9,0.0558659217877095,1.1,8.639412617839014,0.00043210599999999997
711.7,1913.6,41461.0,2.4119e-05,30.421,35.036,68.51,49.127,77.328,1345.1,-0.00048292,95.33,0.61517,supercritical,H2O,C7732185,water,647.0,220.64,17.9,0.0558659217877095,1.1,8.672951414068166,0.0004317301
711.7,1920.9,41497.0,2.4098e-05,30.407,35.036,68.485,49.128,77.268,1347.3,-0.00057917,95.449,0.61598,supercritical,H2O,C7732185,water,647.0,220.64,17.9,0.0558659217877095,1.1,8.706036983321248,0.00043135419999999996
711.7,1928.3,41532.0,2.4078e-05,30.394,35.037,68.461,49.13,77.207,1349.5,-0.00067462,95.567,0.61679,supercritical,H2O,C7732185,water,647.0,220.64,17.9,0.0558659217877095,1.1,8.7395757795504,0.00043099619999999996
711.7,1935.6,41567.0,2.4057e-05,30.38,35.037,68.437,49.131,77.147,1351.6,-0.00076928,95.685,0.6176,supercritical,H2O,C7732185,water,647.0,220.64,17.9,0.0558659217877095,1.1,8.772661348803481,0.0004306203
711.7,1943.0,41602.0,2.4037e-05,30.367,35.038,68.412,49.133,77.088,1353.8,-0.00086315,95.803,0.6184,supercritical,H2O,C7732185,water,647.0,220.64,17.9,0.0558659217877095,1.1,8.806200145032633,0.0004302623
711.7,1950.3,41637.0,2.4017e-05,30.354,35.038,68.388,49.135,77.029,1356.0,-0.00095625,95.921,0.61921,supercritical,H2O,C7732185,water,647.0,220.64,17.9,0.0558659217877095,1.1,8.839285714285715,0.0004299043
711.7,1957.7,41672.0,2.3997e-05,30.341,35.039,68.364,49.136,76.971,1358.1,-0.0010486,96.038,0.62001,supercritical,H2O,C7732185,water,647.0,220.64,17.9,0.0558659217877095,1.1,8.872824510514867,0.0004295463
711.7,1965.0,41706.0,2.3977e-05,30.328,35.039,68.341,49.138,76.913,1360.3,-0.0011402,96.155,0.62081,supercritical,H2O,C7732185,water,647.0,220.64,17.9,0.0558659217877095,1.1,8.90591007976795,0.0004291883
711.7,1972.4,41741.0,2.3957e-05,30.315,35.04,68.317,49.14,76.855,1362.4,-0.001231,96.271,0.62161,supercritical,H2O,C7732185,water,647.0,220.64,17.9,0.0558659217877095,1.1,8.939448875997101,0.0004288303
711.7,1979.7,41775.0,2.3938e-05,30.302,35.041,68.293,49.141,76.798,1364.5,-0.0013211,96.388,0.62241,supercritical,H2O,C7732185,water,647.0,220.64,17.9,0.0558659217877095,1.1,8.972534445250181,0.00042849019999999997
711.7,1987.1,41809.0,2.3918e-05,30.289,35.041,68.269,49.143,76.741,1366.7,-0.0014104,96.504,0.6232,supercritical,H2O,C7732185,water,647.0,220.64,17.9,0.0558659217877095,1.1,9.006073241479333,0.0004281322
711.7,1994.4,41843.0,2.3899e-05,30.276,35.042,68.246,49.145,76.685,1368.8,-0.0014991,96.619,0.624,supercritical,H2O,C7732185,water,647.0,220.64,17.9,0.0558659217877095,1.1,9.039158810732415,0.00042779209999999995
711.7,2001.7,41877.0,2.3879e-05,30.263,35.043,68.222,49.147,76.629,1370.9,-0.001587,96.735,0.62479,supercritical,H2O,C7732185,water,647.0,220.64,17.9,0.0558659217877095,1.1,9.072244379985497,0.00042743409999999995
711.7,2009.1,41911.0,2.386e-05,30.25,35.044,68.199,49.149,76.574,1373.0,-0.0016742,96.85,0.62558,supercritical,H2O,C7732185,water,647.0,220.64,17.9,0.0558659217877095,1.1,9.105783176214649,0.00042709399999999993
711.7,2016.4,41944.0,2.3841e-05,30.238,35.045,68.176,49.15,76.519,1375.1,-0.0017608,96.965,0.62637,supercritical,H2O,C7732185,water,647.0,220.64,17.9,0.0558659217877095,1.1,9.13886874546773,0.00042675389999999997
711.7,2023.8,41978.0,2.3822e-05,30.225,35.046,68.153,49.152,76.464,1377.2,-0.0018466,97.079,0.62716,supercritical,H2O,C7732185,water,647.0,220.64,17.9,0.0558659217877095,1.1,9.172407541696883,0.00042641379999999995
711.7,2031.1,42011.0,2.3803e-05,30.212,35.047,68.129,49.154,76.41,1379.3,-0.0019318,97.194,0.62794,supercritical,H2O,C7732185,water,647.0,220.64,17.9,0.0558659217877095,1.1,9.205493110949964,0.0004260737
711.7,2038.5,42045.0,2.3784e-05,30.2,35.048,68.106,49.156,76.356,1381.4,-0.0020163,97.308,0.62873,supercritical,H2O,C7732185,water,647.0,220.64,17.9,0.0558659217877095,1.1,9.239031907179116,0.0004257336
711.7,2045.8,42078.0,2.3765e-05,30.187,35.049,68.084,49.158,76.303,1383.5,-0.0021001,97.421,0.62951,supercritical,H2O,C7732185,water,647.0,220.64,17.9,0.0558659217877095,1.1,9.272117476432198,0.0004253935
711.7,2053.2,42111.0,2.3747e-05,30.175,35.05,68.061,49.159,76.25,1385.5,-0.0021833,97.535,0.63029,supercritical,H2O,C7732185,water,647.0,220.64,17.9,0.0558659217877095,1.1,9.305656272661349,0.0004250713
711.7,2060.5,42144.0,2.3728e-05,30.162,35.052,68.038,49.161,76.197,1387.6,-0.0022659,97.648,0.63107,supercritical,H2O,C7732185,water,647.0,220.64,17.9,0.0558659217877095,1.1,9.338741841914432,0.0004247312
711.7,2067.9,42176.0,2.371e-05,30.15,35.053,68.015,49.163,76.145,1389.7,-0.0023478,97.761,0.63185,supercritical,H2O,C7732185,water,647.0,220.64,17.9,0.0558659217877095,1.1,9.372280638143584,0.000424409
711.7,2075.2,42209.0,2.3692e-05,30.138,35.054,67.993,49.165,76.093,1391.7,-0.002429,97.874,0.63263,supercritical,H2O,C7732185,water,647.0,220.64,17.9,0.0558659217877095,1.1,9.405366207396664,0.00042408679999999995
711.7,2082.6,42242.0,2.3673e-05,30.126,35.056,67.97,49.167,76.042,1393.8,-0.0025097,97.986,0.6334,supercritical,H2O,C7732185,water,647.0,220.64,17.9,0.0558659217877095,1.1,9.438905003625816,0.00042374669999999993
711.7,2089.9,42274.0,2.3655e-05,30.113,35.057,67.948,49.169,75.991,1395.8,-0.0025897,98.098,0.63418,supercritical,H2O,C7732185,water,647.0,220.64,17.9,0.0558659217877095,1.1,9.471990572878898,0.00042342449999999994