Temperature (K),Pressure (bar),Density (mol/m3),Volume (m3/mol),Internal Energy (kJ/mol),Enthalpy (kJ/mol),Entropy (J/mol*K),Cv (J/mol*K),Cp (J/mol*K),Sound Spd. (m/s),Joule-Thomson (K/bar),Viscosity (uPa*s),Therm. Cond. (W/m*K),Phase,substance,substance_id,substance_name,Tc,Pc,rhoc,Vmc,Tr,Pr,Vmr
150.86,300.92,28617.0,3.4944e-05,-2.5477,-1.4962,74.452,17.538,42.55,659.52,-0.022514,103.08,0.082947,supercritical,Ar,C7440371,argon,150.86,48.9805,13.41,0.07457121551081282,1.0,6.143669419462848,0.0004685990400000001
150.86,302.55,28640.0,3.4917e-05,-2.551,-1.4946,74.425,17.543,42.5,660.67,-0.022737,103.31,0.083093,supercritical,Ar,C7440371,argon,150.86,48.9805,13.41,0.07457121551081282,1.0,6.17694796908974,0.00046823697
150.86,304.18,28662.0,3.4889e-05,-2.5543,-1.493,74.398,17.549,42.451,661.82,-0.022958,103.54,0.083239,supercritical,Ar,C7440371,argon,150.86,48.9805,13.41,0.07457121551081282,1.0,6.210226518716633,0.00046786149
150.86,305.81,28685.0,3.4862e-05,-2.5575,-1.4914,74.371,17.555,42.402,662.97,-0.023177,103.76,0.083384,supercritical,Ar,C7440371,argon,150.86,48.9805,13.41,0.07457121551081282,1.0,6.2435050683435245,0.00046749942
150.86,307.44,28707.0,3.4835e-05,-2.5608,-1.4898,74.344,17.56,42.354,664.11,-0.023393,103.99,0.083529,supercritical,Ar,C7440371,argon,150.86,48.9805,13.41,0.07457121551081282,1.0,6.276783617970417,0.0004671373500000001
150.86,309.07,28729.0,3.4808e-05,-2.564,-1.4882,74.317,17.566,42.306,665.24,-0.023608,104.22,0.083673,supercritical,Ar,C7440371,argon,150.86,48.9805,13.41,0.07457121551081282,1.0,6.310062167597309,0.0004667752800000001
150.86,310.7,28752.0,3.4781e-05,-2.5672,-1.4866,74.29,17.571,42.258,666.37,-0.02382,104.45,0.083817,supercritical,Ar,C7440371,argon,150.86,48.9805,13.41,0.07457121551081282,1.0,6.343340717224201,0.00046641321
150.86,312.33,28774.0,3.4754e-05,-2.5704,-1.4849,74.263,17.577,42.212,667.49,-0.024031,104.67,0.083961,supercritical,Ar,C7440371,argon,150.86,48.9805,13.41,0.07457121551081282,1.0,6.376619266851094,0.00046605114
150.86,313.96,28796.0,3.4728e-05,-2.5736,-1.4833,74.237,17.582,42.165,668.61,-0.024239,104.9,0.084104,supercritical,Ar,C7440371,argon,150.86,48.9805,13.41,0.07457121551081282,1.0,6.409897816477986,0.00046570248
150.86,315.59,28817.0,3.4701e-05,-2.5767,-1.4816,74.21,17.588,42.119,669.73,-0.024446,105.12,0.084247,supercritical,Ar,C7440371,argon,150.86,48.9805,13.41,0.07457121551081282,1.0,6.443176366104878,0.00046534041
150.86,317.22,28839.0,3.4675e-05,-2.5799,-1.4799,74.184,17.594,42.074,670.84,-0.02465,105.35,0.08439,supercritical,Ar,C7440371,argon,150.86,48.9805,13.41,0.07457121551081282,1.0,6.476454915731772,0.0004649917500000001
150.86,318.85,28861.0,3.4649e-05,-2.583,-1.4782,74.158,17.599,42.029,671.95,-0.024853,105.57,0.084532,supercritical,Ar,C7440371,argon,150.86,48.9805,13.41,0.07457121551081282,1.0,6.509733465358663,0.00046464309000000006
150.86,320.48,28882.0,3.4623e-05,-2.5861,-1.4765,74.132,17.605,41.984,673.05,-0.025054,105.79,0.084674,supercritical,Ar,C7440371,argon,150.86,48.9805,13.41,0.07457121551081282,1.0,6.543012014985556,0.00046429443
150.86,322.11,28904.0,3.4598e-05,-2.5892,-1.4748,74.106,17.61,41.94,674.15,-0.025253,106.02,0.084815,supercritical,Ar,C7440371,argon,150.86,48.9805,13.41,0.07457121551081282,1.0,6.5762905646124485,0.0004639591800000001
150.86,323.74,28925.0,3.4572e-05,-2.5923,-1.473,74.08,17.616,41.897,675.24,-0.02545,106.24,0.084957,supercritical,Ar,C7440371,argon,150.86,48.9805,13.41,0.07457121551081282,1.0,6.60956911423934,0.00046361052
150.86,325.37,28946.0,3.4547e-05,-2.5953,-1.4713,74.054,17.622,41.853,676.33,-0.025646,106.46,0.085097,supercritical,Ar,C7440371,argon,150.86,48.9805,13.41,0.07457121551081282,1.0,6.642847663866233,0.00046327527000000003
150.86,327.0,28967.0,3.4522e-05,-2.5984,-1.4695,74.028,17.627,41.81,677.42,-0.025839,106.68,0.085238,supercritical,Ar,C7440371,argon,150.86,48.9805,13.41,0.07457121551081282,1.0,6.6761262134931245,0.00046294002000000004
150.86,328.63,28988.0,3.4497e-05,-2.6014,-1.4678,74.003,17.633,41.768,678.5,-0.026031,106.91,0.085378,supercritical,Ar,C7440371,argon,150.86,48.9805,13.41,0.07457121551081282,1.0,6.709404763120017,0.00046260477000000004
150.86,330.26,29009.0,3.4472e-05,-2.6045,-1.466,73.977,17.638,41.726,679.58,-0.026221,107.13,0.085518,supercritical,Ar,C7440371,argon,150.86,48.9805,13.41,0.07457121551081282,1.0,6.74268331274691,0.00046226952
150.86,331.89,29030.0,3.4447e-05,-2.6075,-1.4642,73.952,17.644,41.684,680.65,-0.02641,107.35,0.085657,supercritical,Ar,C7440371,argon,150.86,48.9805,13.41,0.07457121551081282,1.0,6.775961862373801,0.00046193427
150.86,333.52,29051.0,3.4422e-05,-2.6105,-1.4624,73.927,17.65,41.643,681.72,-0.026597,107.57,0.085796,supercritical,Ar,C7440371,argon,150.86,48.9805,13.41,0.07457121551081282,1.0,6.809240412000694,0.00046159902
150.86,335.15,29072.0,3.4398e-05,-2.6134,-1.4606,73.902,17.655,41.602,682.78,-0.026782,107.79,0.085935,supercritical,Ar,C7440371,argon,150.86,48.9805,13.41,0.07457121551081282,1.0,6.8425189616275865,0.00046127718000000005
150.86,336.78,29092.0,3.4373e-05,-2.6164,-1.4588,73.876,17.661,41.562,683.84,-0.026965,108.01,0.086073,supercritical,Ar,C7440371,argon,150.86,48.9805,13.41,0.07457121551081282,1.0,6.875797511254478,0.00046094193
150.86,338.41,29113.0,3.4349e-05,-2.6194,-1.4569,73.851,17.666,41.522,684.9,-0.027147,108.23,0.086211,supercritical,Ar,C7440371,argon,150.86,48.9805,13.41,0.07457121551081282,1.0,6.909076060881372,0.00046062009000000004
150.86,340.04,29133.0,3.4325e-05,-2.6223,-1.4551,73.827,17.672,41.482,685.95,-0.027328,108.45,0.086349,supercritical,Ar,C7440371,argon,150.86,48.9805,13.41,0.07457121551081282,1.0,6.942354610508264,0.0004602982500000001
150.86,341.67,29153.0,3.4301e-05,-2.6252,-1.4532,73.802,17.678,41.443,687.0,-0.027506,108.66,0.086487,supercritical,Ar,C7440371,argon,150.86,48.9805,13.41,0.07457121551081282,1.0,6.975633160135156,0.00045997641000000006
150.86,343.3,29174.0,3.4277e-05,-2.6281,-1.4514,73.777,17.683,41.404,688.04,-0.027684,108.88,0.086624,supercritical,Ar,C7440371,argon,150.86,48.9805,13.41,0.07457121551081282,1.0,7.008911709762049,0.00045965457
150.86,344.93,29194.0,3.4254e-05,-2.631,-1.4495,73.752,17.689,41.365,689.09,-0.027859,109.1,0.086761,supercritical,Ar,C7440371,argon,150.86,48.9805,13.41,0.07457121551081282,1.0,7.042190259388941,0.00045934614000000005
150.86,346.56,29214.0,3.423e-05,-2.6339,-1.4476,73.728,17.694,41.327,690.12,-0.028033,109.32,0.086897,supercritical,Ar,C7440371,argon,150.86,48.9805,13.41,0.07457121551081282,1.0,7.075468809015833,0.0004590243000000001
150.86,348.19,29234.0,3.4207e-05,-2.6368,-1.4457,73.704,17.7,41.289,691.16,-0.028206,109.53,0.087033,supercritical,Ar,C7440371,argon,150.86,48.9805,13.41,0.07457121551081282,1.0,7.1087473586427254,0.00045871587000000005
150.86,349.82,29254.0,3.4184e-05,-2.6396,-1.4438,73.679,17.706,41.251,692.19,-0.028377,109.75,0.087169,supercritical,Ar,C7440371,argon,150.86,48.9805,13.41,0.07457121551081282,1.0,7.142025908269617,0.00045840744
150.86,351.45,29274.0,3.4161e-05,-2.6425,-1.4419,73.655,17.711,41.214,693.21,-0.028547,109.97,0.087305,supercritical,Ar,C7440371,argon,150.86,48.9805,13.41,0.07457121551081282,1.0,7.17530445789651,0.0004580990100000001
150.86,353.08,29293.0,3.4138e-05,-2.6453,-1.44,73.631,17.717,41.177,694.23,-0.028716,110.18,0.08744,supercritical,Ar,C7440371,argon,150.86,48.9805,13.41,0.07457121551081282,1.0,7.208583007523402,0.00045779058000000003
150.86,354.71,29313.0,3.4115e-05,-2.6481,-1.4381,73.607,17.722,41.14,695.25,-0.028883,110.4,0.087575,supercritical,Ar,C7440371,argon,150.86,48.9805,13.41,0.07457121551081282,1.0,7.241861557150294,0.00045748215000000005
150.86,356.34,29332.0,3.4092e-05,-2.651,-1.4361,73.583,17.728,41.104,696.27,-0.029048,110.61,0.087709,supercritical,Ar,C7440371,argon,150.86,48.9805,13.41,0.07457121551081282,1.0,7.275140106777187,0.00045717372
150.86,357.97,29352.0,3.4069e-05,-2.6538,-1.4342,73.559,17.734,41.068,697.28,-0.029212,110.83,0.087844,supercritical,Ar,C7440371,argon,150.86,48.9805,13.41,0.07457121551081282,1.0,7.30841865640408,0.00045686529000000007
150.86,359.6,29371.0,3.4047e-05,-2.6565,-1.4322,73.535,17.739,41.032,698.29,-0.029375,111.04,0.087978,supercritical,Ar,C7440371,argon,150.86,48.9805,13.41,0.07457121551081282,1.0,7.341697206030972,0.00045657027000000006
150.86,361.23,29391.0,3.4024e-05,-2.6593,-1.4302,73.511,17.745,40.997,699.29,-0.029537,111.25,0.088111,supercritical,Ar,C7440371,argon,150.86,48.9805,13.41,0.07457121551081282,1.0,7.374975755657864,0.00045626184
150.86,362.86,29410.0,3.4002e-05,-2.6621,-1.4283,73.488,17.75,40.962,700.29,-0.029697,111.47,0.088245,supercritical,Ar,C7440371,argon,150.86,48.9805,13.41,0.07457121551081282,1.0,7.408254305284757,0.00045596682
150.86,364.49,29429.0,3.398e-05,-2.6648,-1.4263,73.464,17.756,40.927,701.29,-0.029856,111.68,0.088378,supercritical,Ar,C7440371,argon,150.86,48.9805,13.41,0.07457121551081282,1.0,7.441532854911649,0.0004556718000000001
150.86,366.12,29448.0,3.3958e-05,-2.6676,-1.4243,73.441,17.761,40.893,702.29,-0.030013,111.89,0.088511,supercritical,Ar,C7440371,argon,150.86,48.9805,13.41,0.07457121551081282,1.0,7.474811404538541,0.0004553767800000001
150.86,367.75,29467.0,3.3936e-05,-2.6703,-1.4223,73.417,17.767,40.859,703.28,-0.03017,112.11,0.088643,supercritical,Ar,C7440371,argon,150.86,48.9805,13.41,0.07457121551081282,1.0,7.508089954165433,0.0004550817600000001
150.86,369.38,29486.0,3.3914e-05,-2.673,-1.4203,73.394,17.773,40.825,704.27,-0.030325,112.32,0.088776,supercritical,Ar,C7440371,argon,150.86,48.9805,13.41,0.07457121551081282,1.0,7.5413685037923255,0.00045478674000000007
150.86,371.01,29505.0,3.3893e-05,-2.6757,-1.4182,73.371,17.778,40.791,705.25,-0.030479,112.53,0.088908,supercritical,Ar,C7440371,argon,150.86,48.9805,13.41,0.07457121551081282,1.0,7.574647053419218,0.0004545051300000001
150.86,372.64,29524.0,3.3871e-05,-2.6784,-1.4162,73.348,17.784,40.758,706.23,-0.030631,112.74,0.089039,supercritical,Ar,C7440371,argon,150.86,48.9805,13.41,0.07457121551081282,1.0,7.60792560304611,0.0004542101100000001
150.86,374.27,29542.0,3.385e-05,-2.6811,-1.4142,73.325,17.789,40.725,707.21,-0.030783,112.95,0.089171,supercritical,Ar,C7440371,argon,150.86,48.9805,13.41,0.07457121551081282,1.0,7.641204152673002,0.0004539285000000001
150.86,375.9,29561.0,3.3828e-05,-2.6837,-1.4121,73.302,17.795,40.692,708.18,-0.030933,113.17,0.089302,supercritical,Ar,C7440371,argon,150.86,48.9805,13.41,0.07457121551081282,1.0,7.674482702299895,0.0004536334800000001
150.86,377.53,29580.0,3.3807e-05,-2.6864,-1.4101,73.279,17.8,40.66,709.16,-0.031082,113.38,0.089433,supercritical,Ar,C7440371,argon,150.86,48.9805,13.41,0.07457121551081282,1.0,7.707761251926787,0.00045335187
150.86,379.16,29598.0,3.3786e-05,-2.689,-1.408,73.256,17.806,40.628,710.12,-0.03123,113.59,0.089563,supercritical,Ar,C7440371,argon,150.86,48.9805,13.41,0.07457121551081282,1.0,7.74103980155368,0.00045307026
150.86,380.79,29617.0,3.3765e-05,-2.6917,-1.4059,73.233,17.811,40.596,711.09,-0.031376,113.8,0.089694,supercritical,Ar,C7440371,argon,150.86,48.9805,13.41,0.07457121551081282,1.0,7.774318351180573,0.00045278865000000003
150.86,382.42,29635.0,3.3744e-05,-2.6943,-1.4038,73.21,17.817,40.564,712.05,-0.031522,114.01,0.089824,supercritical,Ar,C7440371,argon,150.86,48.9805,13.41,0.07457121551081282,1.0,7.807596900807464,0.00045250704000000005
150.86,384.05,29653.0,3.3723e-05,-2.6969,-1.4018,73.188,17.823,40.533,713.01,-0.031666,114.22,0.089953,supercritical,Ar,C7440371,argon,150.86,48.9805,13.41,0.07457121551081282,1.0,7.840875450434357,0.00045222543000000007
150.86,385.68,29671.0,3.3702e-05,-2.6995,-1.3997,73.165,17.828,40.501,713.96,-0.031809,114.43,0.090083,supercritical,Ar,C7440371,argon,150.86,48.9805,13.41,0.07457121551081282,1.0,7.8741540000612495,0.00045194382
150.86,387.31,29690.0,3.3682e-05,-2.7021,-1.3976,73.143,17.834,40.47,714.92,-0.031952,114.64,0.090212,supercritical,Ar,C7440371,argon,150.86,48.9805,13.41,0.07457121551081282,1.0,7.907432549688141,0.00045167562000000003
150.86,388.94,29708.0,3.3661e-05,-2.7047,-1.3955,73.12,17.839,40.44,715.87,-0.032093,114.84,0.090341,supercritical,Ar,C7440371,argon,150.86,48.9805,13.41,0.07457121551081282,1.0,7.940711099315034,0.00045139401000000005
150.86,390.57,29726.0,3.3641e-05,-2.7072,-1.3933,73.098,17.845,40.409,716.81,-0.032233,115.05,0.09047,supercritical,Ar,C7440371,argon,150.86,48.9805,13.41,0.07457121551081282,1.0,7.9739896489419255,0.00045112581000000004
150.86,392.2,29744.0,3.3621e-05,-2.7098,-1.3912,73.076,17.85,40.379,717.76,-0.032371,115.26,0.090598,supercritical,Ar,C7440371,argon,150.86,48.9805,13.41,0.07457121551081282,1.0,8.007268198568818,0.0004508576100000001
150.86,393.83,29761.0,3.36e-05,-2.7124,-1.3891,73.054,17.856,40.349,718.7,-0.032509,115.47,0.090726,supercritical,Ar,C7440371,argon,150.86,48.9805,13.41,0.07457121551081282,1.0,8.04054674819571,0.000450576
150.86,395.46,29779.0,3.358e-05,-2.7149,-1.3869,73.032,17.861,40.32,719.64,-0.032646,115.68,0.090854,supercritical,Ar,C7440371,argon,150.86,48.9805,13.41,0.07457121551081282,1.0,8.073825297822603,0.00045030780000000005
150.86,397.09,29797.0,3.356e-05,-2.7174,-1.3848,73.01,17.867,40.29,720.57,-0.032782,115.88,0.090982,supercritical,Ar,C7440371,argon,150.86,48.9805,13.41,0.07457121551081282,1.0,8.107103847449494,0.0004500396
150.86,398.72,29815.0,3.354e-05,-2.7199,-1.3826,72.988,17.872,40.261,721.5,-0.032917,116.09,0.091109,supercritical,Ar,C7440371,argon,150.86,48.9805,13.41,0.07457121551081282,1.0,8.140382397076388,0.00044977140000000004
150.86,400.35,29832.0,3.3521e-05,-2.7225,-1.3805,72.966,17.878,40.232,722.43,-0.03305,116.3,0.091236,supercritical,Ar,C7440371,argon,150.86,48.9805,13.41,0.07457121551081282,1.0,8.173660946703281,0.00044951661000000007
150.86,401.98,29850.0,3.3501e-05,-2.725,-1.3783,72.944,17.883,40.203,723.36,-0.033183,116.51,0.091363,supercritical,Ar,C7440371,argon,150.86,48.9805,13.41,0.07457121551081282,1.0,8.206939496330172,0.0004492484100000001
150.86,403.61,29867.0,3.3481e-05,-2.7274,-1.3761,72.922,17.889,40.175,724.28,-0.033315,116.71,0.09149,supercritical,Ar,C7440371,argon,150.86,48.9805,13.41,0.07457121551081282,1.0,8.240218045957064,0.00044898021000000006
150.86,405.24,29885.0,3.3462e-05,-2.7299,-1.3739,72.9,17.894,40.146,725.2,-0.033446,116.92,0.091616,supercritical,Ar,C7440371,argon,150.86,48.9805,13.41,0.07457121551081282,1.0,8.273496595583957,0.00044872542
150.86,406.87,29902.0,3.3442e-05,-2.7324,-1.3717,72.879,17.9,40.118,726.12,-0.033576,117.12,0.091742,supercritical,Ar,C7440371,argon,150.86,48.9805,13.41,0.07457121551081282,1.0,8.30677514521085,0.0004484572200000001
150.86,408.5,29920.0,3.3423e-05,-2.7349,-1.3695,72.857,17.905,40.09,727.04,-0.033705,117.33,0.091868,supercritical,Ar,C7440371,argon,150.86,48.9805,13.41,0.07457121551081282,1.0,8.340053694837742,0.00044820243000000005
150.86,410.13,29937.0,3.3404e-05,-2.7373,-1.3673,72.836,17.911,40.062,727.95,-0.033832,117.54,0.091994,supercritical,Ar,C7440371,argon,150.86,48.9805,13.41,0.07457121551081282,1.0,8.373332244464635,0.00044794764000000007
150.86,411.76,29954.0,3.3385e-05,-2.7398,-1.3651,72.814,17.916,40.035,728.86,-0.033959,117.74,0.092119,supercritical,Ar,C7440371,argon,150.86,48.9805,13.41,0.07457121551081282,1.0,8.406610794091526,0.00044769285000000004
150.86,413.39,29971.0,3.3365e-05,-2.7422,-1.3629,72.793,17.922,40.008,729.76,-0.034086,117.95,0.092244,supercritical,Ar,C7440371,argon,150.86,48.9805,13.41,0.07457121551081282,1.0,8.439889343718418,0.0004474246500000001
150.86,415.02,29988.0,3.3346e-05,-2.7446,-1.3607,72.772,17.927,39.981,730.67,-0.034211,118.15,0.092369,supercritical,Ar,C7440371,argon,150.86,48.9805,13.41,0.07457121551081282,1.0,8.47316789334531,0.00044716986000000006
150.86,416.65,30005.0,3.3328e-05,-2.747,-1.3584,72.751,17.933,39.954,731.57,-0.034335,118.36,0.092494,supercritical,Ar,C7440371,argon,150.86,48.9805,13.41,0.07457121551081282,1.0,8.506446442972203,0.00044692848
150.86,418.28,30022.0,3.3309e-05,-2.7494,-1.3562,72.729,17.938,39.927,732.47,-0.034458,118.56,0.092618,supercritical,Ar,C7440371,argon,150.86,48.9805,13.41,0.07457121551081282,1.0,8.539724992599096,0.0004466736900000001
150.86,419.91,30039.0,3.329e-05,-2.7518,-1.354,72.708,17.943,39.901,733.37,-0.034581,118.76,0.092743,supercritical,Ar,C7440371,argon,150.86,48.9805,13.41,0.07457121551081282,1.0,8.573003542225988,0.00044641890000000006
150.86,421.54,30056.0,3.3271e-05,-2.7542,-1.3517,72.687,17.949,39.874,734.26,-0.034702,118.97,0.092866,supercritical,Ar,C7440371,argon,150.86,48.9805,13.41,0.07457121551081282,1.0,8.606282091852881,0.00044616411000000003
150.86,423.17,30073.0,3.3253e-05,-2.7566,-1.3494,72.666,17.954,39.848,735.15,-0.034823,119.17,0.09299,supercritical,Ar,C7440371,argon,150.86,48.9805,13.41,0.07457121551081282,1.0,8.639560641479774,0.0004459227300000001
150.86,424.8,30089.0,3.3234e-05,-2.759,-1.3472,72.645,17.96,39.822,736.04,-0.034943,119.38,0.093114,supercritical,Ar,C7440371,argon,150.86,48.9805,13.41,0.07457121551081282,1.0,8.672839191106664,0.00044566794000000005
150.86,426.43,30106.0,3.3216e-05,-2.7613,-1.3449,72.625,17.965,39.797,736.93,-0.035062,119.58,0.093237,supercritical,Ar,C7440371,argon,150.86,48.9805,13.41,0.07457121551081282,1.0,8.706117740733557,0.00044542656000000005
150.86,428.06,30123.0,3.3198e-05,-2.7637,-1.3426,72.604,17.971,39.771,737.81,-0.03518,119.78,0.09336,supercritical,Ar,C7440371,argon,150.86,48.9805,13.41,0.07457121551081282,1.0,8.73939629036045,0.0004451851800000001
150.86,429.69,30139.0,3.3179e-05,-2.766,-1.3403,72.583,17.976,39.746,738.69,-0.035298,119.98,0.093483,supercritical,Ar,C7440371,argon,150.86,48.9805,13.41,0.07457121551081282,1.0,8.772674839987342,0.0004449303900000001
150.86,431.32,30156.0,3.3161e-05,-2.7684,-1.3381,72.562,17.981,39.721,739.57,-0.035414,120.19,0.093605,supercritical,Ar,C7440371,argon,150.86,48.9805,13.41,0.07457121551081282,1.0,8.805953389614235,0.0004446890100000001
150.86,432.95,30172.0,3.3143e-05,-2.7707,-1.3358,72.542,17.987,39.696,740.45,-0.03553,120.39,0.093728,supercritical,Ar,C7440371,argon,150.86,48.9805,13.41,0.07457121551081282,1.0,8.839231939241126,0.00044444763
150.86,434.58,30189.0,3.3125e-05,-2.773,-1.3335,72.521,17.992,39.671,741.32,-0.035645,120.59,0.093851,supercritical,Ar,C7440371,argon,150.86,48.9805,13.41,0.07457121551081282,1.0,8.872510488868018,0.00044420625
150.86,436.21,30205.0,3.3107e-05,-2.7753,-1.3311,72.501,17.998,39.646,742.19,-0.035759,120.79,0.093973,supercritical,Ar,C7440371,argon,150.86,48.9805,13.41,0.07457121551081282,1.0,8.90578903849491,0.00044396487
150.86,437.84,30221.0,3.3089e-05,-2.7776,-1.3288,72.48,18.003,39.622,743.06,-0.035872,121.0,0.094096,supercritical,Ar,C7440371,argon,150.86,48.9805,13.41,0.07457121551081282,1.0,8.939067588121803,0.0004437234900000001
150.86,439.47,30238.0,3.3071e-05,-2.7799,-1.3265,72.46,18.009,39.598,743.93,-0.035985,121.2,0.094218,supercritical,Ar,C7440371,argon,150.86,48.9805,13.41,0.07457121551081282,1.0,8.972346137748696,0.0004434821100000001
150.86,441.1,30254.0,3.3054e-05,-2.7822,-1.3242,72.44,18.014,39.574,744.79,-0.036096,121.4,0.09434,supercritical,Ar,C7440371,argon,150.86,48.9805,13.41,0.07457121551081282,1.0,9.005624687375589,0.00044325414
150.86,442.73,30270.0,3.3036e-05,-2.7845,-1.3219,72.419,18.019,39.55,745.65,-0.036207,121.6,0.094462,supercritical,Ar,C7440371,argon,150.86,48.9805,13.41,0.07457121551081282,1.0,9.038903237002481,0.00044301276000000006
150.86,444.36,30286.0,3.3019e-05,-2.7867,-1.3195,72.399,18.025,39.526,746.51,-0.036318,121.8,0.094584,supercritical,Ar,C7440371,argon,150.86,48.9805,13.41,0.07457121551081282,1.0,9.072181786629374,0.00044278479
150.86,445.99,30302.0,3.3001e-05,-2.789,-1.3172,72.379,18.03,39.502,747.37,-0.036427,122.0,0.094705,supercritical,Ar,C7440371,argon,150.86,48.9805,13.41,0.07457121551081282,1.0,9.105460336256266,0.00044254341000000004
150.86,447.62,30318.0,3.2984e-05,-2.7912,-1.3148,72.359,18.035,39.479,748.22,-0.036536,122.2,0.094826,supercritical,Ar,C7440371,argon,150.86,48.9805,13.41,0.07457121551081282,1.0,9.138738885883157,0.00044231544000000007