Temperature (K),Pressure (bar),Density (mol/m3),Volume (m3/mol),Internal Energy (kJ/mol),Enthalpy (kJ/mol),Entropy (J/mol*K),Cv (J/mol*K),Cp (J/mol*K),Sound Spd. (m/s),Joule-Thomson (K/bar),Viscosity (uPa*s),Therm. Cond. (W/m*K),Phase,substance,substance_id,substance_name,Tc,Pc,rhoc,Vmc,Tr,Pr,Vmr
181.03,741.02,29956.0,3.3382e-05,-2.2045,0.26915,76.049,17.604,36.007,797.43,-0.044691,116.2,0.095198,supercritical,Ar,C7440371,argon,150.86,48.9805,13.41,0.07457121551081282,1.2,15.128877818723778,0.00044765262000000006
181.03,742.65,29969.0,3.3367e-05,-2.2063,0.27177,76.033,17.608,35.997,798.09,-0.044757,116.34,0.095295,supercritical,Ar,C7440371,argon,150.86,48.9805,13.41,0.07457121551081282,1.2,15.16215636835067,0.00044745147000000004
181.03,744.28,29982.0,3.3353e-05,-2.208,0.2744,76.018,17.613,35.986,798.75,-0.044824,116.49,0.095393,supercritical,Ar,C7440371,argon,150.86,48.9805,13.41,0.07457121551081282,1.2,15.195434917977563,0.00044726373
181.03,745.91,29996.0,3.3338e-05,-2.2097,0.27703,76.002,17.617,35.975,799.41,-0.04489,116.63,0.09549,supercritical,Ar,C7440371,argon,150.86,48.9805,13.41,0.07457121551081282,1.2,15.228713467604454,0.00044706258000000004
181.03,747.54,30009.0,3.3324e-05,-2.2114,0.27966,75.987,17.621,35.965,800.07,-0.044955,116.78,0.095587,supercritical,Ar,C7440371,argon,150.86,48.9805,13.41,0.07457121551081282,1.2,15.261992017231346,0.00044687484000000005
181.03,749.17,30022.0,3.3309e-05,-2.2131,0.2823,75.971,17.626,35.954,800.73,-0.04502,116.92,0.095684,supercritical,Ar,C7440371,argon,150.86,48.9805,13.41,0.07457121551081282,1.2,15.295270566858239,0.0004466736900000001
181.03,750.8,30035.0,3.3295e-05,-2.2149,0.28494,75.956,17.63,35.943,801.39,-0.045085,117.06,0.095781,supercritical,Ar,C7440371,argon,150.86,48.9805,13.41,0.07457121551081282,1.2,15.328549116485132,0.00044648595000000004
181.03,752.43,30047.0,3.3281e-05,-2.2166,0.28758,75.94,17.634,35.933,802.04,-0.04515,117.21,0.095878,supercritical,Ar,C7440371,argon,150.86,48.9805,13.41,0.07457121551081282,1.2,15.361827666112024,0.00044629821000000006
181.03,754.06,30060.0,3.3266e-05,-2.2183,0.29023,75.925,17.639,35.923,802.7,-0.045214,117.35,0.095974,supercritical,Ar,C7440371,argon,150.86,48.9805,13.41,0.07457121551081282,1.2,15.395106215738915,0.0004460970600000001
181.03,755.69,30073.0,3.3252e-05,-2.22,0.29288,75.91,17.643,35.912,803.35,-0.045278,117.49,0.096071,supercritical,Ar,C7440371,argon,150.86,48.9805,13.41,0.07457121551081282,1.2,15.428384765365811,0.00044590932000000005
181.03,757.32,30086.0,3.3238e-05,-2.2216,0.29553,75.894,17.647,35.902,804.0,-0.045342,117.64,0.096167,supercritical,Ar,C7440371,argon,150.86,48.9805,13.41,0.07457121551081282,1.2,15.461663314992702,0.00044572158000000006
181.03,758.95,30099.0,3.3224e-05,-2.2233,0.29818,75.879,17.652,35.892,804.66,-0.045405,117.78,0.096264,supercritical,Ar,C7440371,argon,150.86,48.9805,13.41,0.07457121551081282,1.2,15.494941864619594,0.00044553384
181.03,760.58,30112.0,3.321e-05,-2.225,0.30084,75.864,17.656,35.881,805.31,-0.045468,117.92,0.09636,supercritical,Ar,C7440371,argon,150.86,48.9805,13.41,0.07457121551081282,1.2,15.528220414246487,0.0004453461000000001
181.03,762.21,30125.0,3.3196e-05,-2.2267,0.3035,75.849,17.66,35.871,805.96,-0.045531,118.06,0.096456,supercritical,Ar,C7440371,argon,150.86,48.9805,13.41,0.07457121551081282,1.2,15.56149896387338,0.00044515836000000005
181.03,763.84,30137.0,3.3182e-05,-2.2284,0.30617,75.834,17.665,35.861,806.6,-0.045594,118.21,0.096552,supercritical,Ar,C7440371,argon,150.86,48.9805,13.41,0.07457121551081282,1.2,15.594777513500272,0.00044497062000000006
181.03,765.47,30150.0,3.3168e-05,-2.23,0.30883,75.818,17.669,35.851,807.25,-0.045656,118.35,0.096648,supercritical,Ar,C7440371,argon,150.86,48.9805,13.41,0.07457121551081282,1.2,15.628056063127163,0.00044478288
181.03,767.1,30163.0,3.3154e-05,-2.2317,0.3115,75.803,17.673,35.841,807.9,-0.045717,118.49,0.096744,supercritical,Ar,C7440371,argon,150.86,48.9805,13.41,0.07457121551081282,1.2,15.661334612754056,0.0004445951400000001
181.03,768.73,30175.0,3.314e-05,-2.2334,0.31418,75.788,17.678,35.831,808.54,-0.045779,118.64,0.096839,supercritical,Ar,C7440371,argon,150.86,48.9805,13.41,0.07457121551081282,1.2,15.694613162380948,0.0004444074
181.03,770.36,30188.0,3.3126e-05,-2.235,0.31685,75.773,17.682,35.821,809.19,-0.04584,118.78,0.096935,supercritical,Ar,C7440371,argon,150.86,48.9805,13.41,0.07457121551081282,1.2,15.72789171200784,0.00044421966000000006
181.03,771.99,30201.0,3.3112e-05,-2.2367,0.31953,75.758,17.686,35.811,809.83,-0.045901,118.92,0.09703,supercritical,Ar,C7440371,argon,150.86,48.9805,13.41,0.07457121551081282,1.2,15.761170261634733,0.00044403192
181.03,773.62,30213.0,3.3098e-05,-2.2383,0.32221,75.743,17.69,35.801,810.47,-0.045962,119.06,0.097126,supercritical,Ar,C7440371,argon,150.86,48.9805,13.41,0.07457121551081282,1.2,15.794448811261624,0.00044384418000000003
181.03,775.25,30226.0,3.3084e-05,-2.24,0.32489,75.728,17.695,35.791,811.11,-0.046022,119.21,0.097221,supercritical,Ar,C7440371,argon,150.86,48.9805,13.41,0.07457121551081282,1.2,15.827727360888517,0.00044365644
181.03,776.88,30238.0,3.3071e-05,-2.2416,0.32758,75.713,17.699,35.781,811.75,-0.046082,119.35,0.097316,supercritical,Ar,C7440371,argon,150.86,48.9805,13.41,0.07457121551081282,1.2,15.86100591051541,0.0004434821100000001
181.03,778.51,30251.0,3.3057e-05,-2.2433,0.33027,75.698,17.703,35.772,812.39,-0.046142,119.49,0.097411,supercritical,Ar,C7440371,argon,150.86,48.9805,13.41,0.07457121551081282,1.2,15.894284460142302,0.00044329437000000004
181.03,780.14,30263.0,3.3043e-05,-2.2449,0.33296,75.683,17.708,35.762,813.03,-0.046201,119.63,0.097506,supercritical,Ar,C7440371,argon,150.86,48.9805,13.41,0.07457121551081282,1.2,15.927563009769194,0.00044310663000000005
181.03,781.77,30276.0,3.303e-05,-2.2465,0.33565,75.669,17.712,35.752,813.66,-0.04626,119.77,0.097601,supercritical,Ar,C7440371,argon,150.86,48.9805,13.41,0.07457121551081282,1.2,15.960841559396085,0.00044293230000000004
181.03,783.4,30288.0,3.3016e-05,-2.2481,0.33835,75.654,17.716,35.743,814.3,-0.046319,119.92,0.097696,supercritical,Ar,C7440371,argon,150.86,48.9805,13.41,0.07457121551081282,1.2,15.994120109022978,0.00044274456
181.03,785.03,30301.0,3.3003e-05,-2.2498,0.34105,75.639,17.72,35.733,814.93,-0.046378,120.06,0.09779,supercritical,Ar,C7440371,argon,150.86,48.9805,13.41,0.07457121551081282,1.2,16.027398658649872,0.0004425702300000001
181.03,786.66,30313.0,3.2989e-05,-2.2514,0.34375,75.624,17.725,35.724,815.56,-0.046436,120.2,0.097885,supercritical,Ar,C7440371,argon,150.86,48.9805,13.41,0.07457121551081282,1.2,16.06067720827676,0.00044238249
181.03,788.29,30325.0,3.2976e-05,-2.253,0.34646,75.609,17.729,35.714,816.2,-0.046494,120.34,0.097979,supercritical,Ar,C7440371,argon,150.86,48.9805,13.41,0.07457121551081282,1.2,16.093955757903654,0.00044220816
181.03,789.92,30338.0,3.2962e-05,-2.2546,0.34917,75.595,17.733,35.705,816.83,-0.046552,120.48,0.098074,supercritical,Ar,C7440371,argon,150.86,48.9805,13.41,0.07457121551081282,1.2,16.127234307530546,0.00044202042000000006
181.03,791.55,30350.0,3.2949e-05,-2.2562,0.35188,75.58,17.737,35.696,817.46,-0.046609,120.63,0.098168,supercritical,Ar,C7440371,argon,150.86,48.9805,13.41,0.07457121551081282,1.2,16.16051285715744,0.00044184609000000004
181.03,793.18,30362.0,3.2936e-05,-2.2578,0.35459,75.565,17.742,35.686,818.09,-0.046666,120.77,0.098262,supercritical,Ar,C7440371,argon,150.86,48.9805,13.41,0.07457121551081282,1.2,16.19379140678433,0.00044167176000000003
181.03,794.81,30374.0,3.2922e-05,-2.2594,0.35731,75.551,17.746,35.677,818.72,-0.046723,120.91,0.098356,supercritical,Ar,C7440371,argon,150.86,48.9805,13.41,0.07457121551081282,1.2,16.227069956411224,0.00044148402000000005
181.03,796.44,30387.0,3.2909e-05,-2.261,0.36003,75.536,17.75,35.668,819.34,-0.04678,121.05,0.09845,supercritical,Ar,C7440371,argon,150.86,48.9805,13.41,0.07457121551081282,1.2,16.26034850603812,0.00044130969000000003
181.03,798.07,30399.0,3.2896e-05,-2.2626,0.36275,75.521,17.754,35.658,819.97,-0.046836,121.19,0.098544,supercritical,Ar,C7440371,argon,150.86,48.9805,13.41,0.07457121551081282,1.2,16.29362705566501,0.00044113536
181.03,799.7,30411.0,3.2883e-05,-2.2642,0.36547,75.507,17.759,35.649,820.59,-0.046892,121.33,0.098637,supercritical,Ar,C7440371,argon,150.86,48.9805,13.41,0.07457121551081282,1.2,16.326905605291902,0.00044096103
181.03,801.33,30423.0,3.287e-05,-2.2658,0.3682,75.492,17.763,35.64,821.22,-0.046948,121.48,0.098731,supercritical,Ar,C7440371,argon,150.86,48.9805,13.41,0.07457121551081282,1.2,16.360184154918795,0.00044078670000000005
181.03,802.96,30435.0,3.2857e-05,-2.2673,0.37092,75.478,17.767,35.631,821.84,-0.047004,121.62,0.098825,supercritical,Ar,C7440371,argon,150.86,48.9805,13.41,0.07457121551081282,1.2,16.393462704545687,0.00044061237000000004
181.03,804.59,30447.0,3.2844e-05,-2.2689,0.37366,75.463,17.771,35.622,822.46,-0.047059,121.76,0.098918,supercritical,Ar,C7440371,argon,150.86,48.9805,13.41,0.07457121551081282,1.2,16.42674125417258,0.00044043804000000003
181.03,806.22,30459.0,3.2831e-05,-2.2705,0.37639,75.449,17.776,35.613,823.08,-0.047114,121.9,0.099011,supercritical,Ar,C7440371,argon,150.86,48.9805,13.41,0.07457121551081282,1.2,16.460019803799472,0.00044026371
181.03,807.85,30472.0,3.2818e-05,-2.272,0.37913,75.434,17.78,35.604,823.7,-0.047169,122.04,0.099105,supercritical,Ar,C7440371,argon,150.86,48.9805,13.41,0.07457121551081282,1.2,16.493298353426365,0.00044008938000000006
181.03,809.48,30484.0,3.2805e-05,-2.2736,0.38186,75.42,17.784,35.595,824.32,-0.047224,122.18,0.099198,supercritical,Ar,C7440371,argon,150.86,48.9805,13.41,0.07457121551081282,1.2,16.526576903053257,0.00043991505000000005
181.03,811.11,30496.0,3.2792e-05,-2.2752,0.38461,75.406,17.788,35.586,824.94,-0.047278,122.32,0.099291,supercritical,Ar,C7440371,argon,150.86,48.9805,13.41,0.07457121551081282,1.2,16.55985545268015,0.00043974072000000004
181.03,812.74,30508.0,3.2779e-05,-2.2767,0.38735,75.391,17.793,35.577,825.56,-0.047332,122.46,0.099384,supercritical,Ar,C7440371,argon,150.86,48.9805,13.41,0.07457121551081282,1.2,16.593134002307043,0.00043956639
181.03,814.37,30519.0,3.2766e-05,-2.2783,0.3901,75.377,17.797,35.569,826.17,-0.047386,122.61,0.099477,supercritical,Ar,C7440371,argon,150.86,48.9805,13.41,0.07457121551081282,1.2,16.62641255193393,0.00043939206
181.03,816.0,30531.0,3.2753e-05,-2.2798,0.39284,75.363,17.801,35.56,826.79,-0.047439,122.75,0.099569,supercritical,Ar,C7440371,argon,150.86,48.9805,13.41,0.07457121551081282,1.2,16.659691101560824,0.00043921773000000006
181.03,817.63,30543.0,3.274e-05,-2.2814,0.39559,75.348,17.805,35.551,827.4,-0.047492,122.89,0.099662,supercritical,Ar,C7440371,argon,150.86,48.9805,13.41,0.07457121551081282,1.2,16.692969651187717,0.00043904340000000005
181.03,819.26,30555.0,3.2728e-05,-2.2829,0.39835,75.334,17.809,35.543,828.02,-0.047545,123.03,0.099754,supercritical,Ar,C7440371,argon,150.86,48.9805,13.41,0.07457121551081282,1.2,16.72624820081461,0.00043888248000000006
181.03,820.89,30567.0,3.2715e-05,-2.2844,0.4011,75.32,17.814,35.534,828.63,-0.047598,123.17,0.099847,supercritical,Ar,C7440371,argon,150.86,48.9805,13.41,0.07457121551081282,1.2,16.759526750441502,0.00043870815000000005
181.03,822.52,30579.0,3.2702e-05,-2.286,0.40386,75.306,17.818,35.525,829.24,-0.047651,123.31,0.099939,supercritical,Ar,C7440371,argon,150.86,48.9805,13.41,0.07457121551081282,1.2,16.792805300068395,0.00043853382000000004
181.03,824.15,30591.0,3.269e-05,-2.2875,0.40662,75.291,17.822,35.517,829.85,-0.047703,123.45,0.10003,supercritical,Ar,C7440371,argon,150.86,48.9805,13.41,0.07457121551081282,1.2,16.826083849695287,0.00043837290000000006
181.03,825.78,30603.0,3.2677e-05,-2.289,0.40938,75.277,17.826,35.508,830.46,-0.047755,123.59,0.10012,supercritical,Ar,C7440371,argon,150.86,48.9805,13.41,0.07457121551081282,1.2,16.85936239932218,0.00043819857000000005
181.03,827.41,30614.0,3.2664e-05,-2.2905,0.41215,75.263,17.83,35.5,831.07,-0.047807,123.73,0.10022,supercritical,Ar,C7440371,argon,150.86,48.9805,13.41,0.07457121551081282,1.2,16.892640948949072,0.00043802424000000004
181.03,829.04,30626.0,3.2652e-05,-2.2921,0.41492,75.249,17.835,35.491,831.68,-0.047858,123.87,0.10031,supercritical,Ar,C7440371,argon,150.86,48.9805,13.41,0.07457121551081282,1.2,16.925919498575965,0.00043786332
181.03,830.67,30638.0,3.2639e-05,-2.2936,0.41769,75.235,17.839,35.483,832.28,-0.04791,124.01,0.1004,supercritical,Ar,C7440371,argon,150.86,48.9805,13.41,0.07457121551081282,1.2,16.959198048202854,0.00043768899
181.03,832.3,30650.0,3.2627e-05,-2.2951,0.42046,75.221,17.843,35.474,832.89,-0.047961,124.15,0.10049,supercritical,Ar,C7440371,argon,150.86,48.9805,13.41,0.07457121551081282,1.2,16.992476597829747,0.00043752807
181.03,833.93,30661.0,3.2615e-05,-2.2966,0.42323,75.207,17.847,35.466,833.49,-0.048012,124.29,0.10058,supercritical,Ar,C7440371,argon,150.86,48.9805,13.41,0.07457121551081282,1.2,17.02575514745664,0.00043736715
181.03,835.56,30673.0,3.2602e-05,-2.2981,0.42601,75.193,17.851,35.458,834.1,-0.048062,124.44,0.10067,supercritical,Ar,C7440371,argon,150.86,48.9805,13.41,0.07457121551081282,1.2,17.05903369708353,0.00043719282
181.03,837.19,30684.0,3.259e-05,-2.2996,0.42879,75.179,17.855,35.449,834.7,-0.048113,124.58,0.10077,supercritical,Ar,C7440371,argon,150.86,48.9805,13.41,0.07457121551081282,1.2,17.092312246710428,0.00043703190000000003
181.03,838.82,30696.0,3.2577e-05,-2.3011,0.43157,75.165,17.86,35.441,835.3,-0.048163,124.72,0.10086,supercritical,Ar,C7440371,argon,150.86,48.9805,13.41,0.07457121551081282,1.2,17.12559079633732,0.0004368575700000001
181.03,840.45,30708.0,3.2565e-05,-2.3026,0.43435,75.151,17.864,35.433,835.9,-0.048213,124.86,0.10095,supercritical,Ar,C7440371,argon,150.86,48.9805,13.41,0.07457121551081282,1.2,17.158869345964213,0.00043669665
181.03,842.08,30719.0,3.2553e-05,-2.3041,0.43714,75.137,17.868,35.425,836.5,-0.048262,125.0,0.10104,supercritical,Ar,C7440371,argon,150.86,48.9805,13.41,0.07457121551081282,1.2,17.192147895591102,0.00043653573
181.03,843.71,30731.0,3.2541e-05,-2.3056,0.43993,75.123,17.872,35.417,837.1,-0.048312,125.14,0.10113,supercritical,Ar,C7440371,argon,150.86,48.9805,13.41,0.07457121551081282,1.2,17.225426445217995,0.00043637481
181.03,845.34,30742.0,3.2528e-05,-2.307,0.44272,75.109,17.876,35.409,837.7,-0.048361,125.28,0.10122,supercritical,Ar,C7440371,argon,150.86,48.9805,13.41,0.07457121551081282,1.2,17.258704994844887,0.00043620048
181.03,846.97,30754.0,3.2516e-05,-2.3085,0.44551,75.095,17.88,35.401,838.3,-0.04841,125.42,0.10131,supercritical,Ar,C7440371,argon,150.86,48.9805,13.41,0.07457121551081282,1.2,17.29198354447178,0.00043603956000000003
181.03,848.6,30765.0,3.2504e-05,-2.31,0.4483,75.081,17.884,35.393,838.89,-0.048459,125.56,0.1014,supercritical,Ar,C7440371,argon,150.86,48.9805,13.41,0.07457121551081282,1.2,17.325262094098672,0.00043587864000000005
181.03,850.23,30777.0,3.2492e-05,-2.3115,0.4511,75.068,17.889,35.385,839.49,-0.048508,125.7,0.10149,supercritical,Ar,C7440371,argon,150.86,48.9805,13.41,0.07457121551081282,1.2,17.358540643725565,0.00043571772000000007
181.03,851.86,30788.0,3.248e-05,-2.3129,0.4539,75.054,17.893,35.377,840.08,-0.048556,125.84,0.10159,supercritical,Ar,C7440371,argon,150.86,48.9805,13.41,0.07457121551081282,1.2,17.391819193352458,0.00043555680000000003
181.03,853.49,30800.0,3.2468e-05,-2.3144,0.4567,75.04,17.897,35.369,840.68,-0.048604,125.98,0.10168,supercritical,Ar,C7440371,argon,150.86,48.9805,13.41,0.07457121551081282,1.2,17.42509774297935,0.00043539588000000005
181.03,855.12,30811.0,3.2456e-05,-2.3159,0.4595,75.026,17.901,35.361,841.27,-0.048652,126.12,0.10177,supercritical,Ar,C7440371,argon,150.86,48.9805,13.41,0.07457121551081282,1.2,17.458376292606243,0.00043523496000000007
181.03,856.75,30822.0,3.2444e-05,-2.3173,0.46231,75.013,17.905,35.353,841.86,-0.0487,126.26,0.10186,supercritical,Ar,C7440371,argon,150.86,48.9805,13.41,0.07457121551081282,1.2,17.491654842233135,0.0004350740400000001
181.03,858.38,30834.0,3.2432e-05,-2.3188,0.46512,74.999,17.909,35.345,842.45,-0.048747,126.4,0.10195,supercritical,Ar,C7440371,argon,150.86,48.9805,13.41,0.07457121551081282,1.2,17.524933391860028,0.00043491312
181.03,860.01,30845.0,3.242e-05,-2.3202,0.46793,74.985,17.913,35.337,843.05,-0.048795,126.54,0.10204,supercritical,Ar,C7440371,argon,150.86,48.9805,13.41,0.07457121551081282,1.2,17.558211941486917,0.0004347522
181.03,861.64,30856.0,3.2408e-05,-2.3217,0.47074,74.972,17.917,35.33,843.63,-0.048842,126.68,0.10213,supercritical,Ar,C7440371,argon,150.86,48.9805,13.41,0.07457121551081282,1.2,17.59149049111381,0.00043459128000000003
181.03,863.27,30868.0,3.2396e-05,-2.3231,0.47355,74.958,17.922,35.322,844.22,-0.048888,126.82,0.10222,supercritical,Ar,C7440371,argon,150.86,48.9805,13.41,0.07457121551081282,1.2,17.624769040740702,0.00043443036000000005
181.03,864.9,30879.0,3.2384e-05,-2.3246,0.47637,74.944,17.926,35.314,844.81,-0.048935,126.96,0.10231,supercritical,Ar,C7440371,argon,150.86,48.9805,13.41,0.07457121551081282,1.2,17.658047590367595,0.00043426944000000007
181.03,866.53,30890.0,3.2373e-05,-2.326,0.47919,74.931,17.93,35.307,845.4,-0.048982,127.1,0.1024,supercritical,Ar,C7440371,argon,150.86,48.9805,13.41,0.07457121551081282,1.2,17.691326139994487,0.00043412193000000006
181.03,868.16,30902.0,3.2361e-05,-2.3274,0.48201,74.917,17.934,35.299,845.98,-0.049028,127.23,0.10249,supercritical,Ar,C7440371,argon,150.86,48.9805,13.41,0.07457121551081282,1.2,17.72460468962138,0.00043396101000000003
181.03,869.79,30913.0,3.2349e-05,-2.3289,0.48483,74.904,17.938,35.291,846.57,-0.049074,127.37,0.10258,supercritical,Ar,C7440371,argon,150.86,48.9805,13.41,0.07457121551081282,1.2,17.757883239248272,0.00043380009
181.03,871.42,30924.0,3.2337e-05,-2.3303,0.48765,74.89,17.942,35.284,847.15,-0.04912,127.51,0.10267,supercritical,Ar,C7440371,argon,150.86,48.9805,13.41,0.07457121551081282,1.2,17.791161788875165,0.00043363917
181.03,873.05,30935.0,3.2326e-05,-2.3317,0.49048,74.877,17.946,35.276,847.74,-0.049165,127.65,0.10276,supercritical,Ar,C7440371,argon,150.86,48.9805,13.41,0.07457121551081282,1.2,17.824440338502058,0.00043349166000000006
181.03,874.68,30946.0,3.2314e-05,-2.3331,0.49331,74.863,17.95,35.269,848.32,-0.049211,127.79,0.10285,supercritical,Ar,C7440371,argon,150.86,48.9805,13.41,0.07457121551081282,1.2,17.85771888812895,0.0004333307400000001
181.03,876.31,30957.0,3.2303e-05,-2.3346,0.49614,74.85,17.954,35.261,848.9,-0.049256,127.93,0.10293,supercritical,Ar,C7440371,argon,150.86,48.9805,13.41,0.07457121551081282,1.2,17.89099743775584,0.00043318323
181.03,877.94,30968.0,3.2291e-05,-2.336,0.49897,74.836,17.958,35.254,849.48,-0.049301,128.07,0.10302,supercritical,Ar,C7440371,argon,150.86,48.9805,13.41,0.07457121551081282,1.2,17.924275987382735,0.00043302231000000004
181.03,879.57,30980.0,3.2279e-05,-2.3374,0.5018,74.823,17.963,35.246,850.06,-0.049346,128.21,0.10311,supercritical,Ar,C7440371,argon,150.86,48.9805,13.41,0.07457121551081282,1.2,17.957554537009628,0.00043286139000000006
181.03,881.2,30991.0,3.2268e-05,-2.3388,0.50464,74.809,17.967,35.239,850.64,-0.04939,128.35,0.1032,supercritical,Ar,C7440371,argon,150.86,48.9805,13.41,0.07457121551081282,1.2,17.99083308663652,0.00043271388
181.03,882.83,31002.0,3.2256e-05,-2.3402,0.50748,74.796,17.971,35.232,851.22,-0.049435,128.49,0.10329,supercritical,Ar,C7440371,argon,150.86,48.9805,13.41,0.07457121551081282,1.2,18.024111636263413,0.00043255296
181.03,884.46,31013.0,3.2245e-05,-2.3416,0.51032,74.783,17.975,35.224,851.8,-0.049479,128.63,0.10338,supercritical,Ar,C7440371,argon,150.86,48.9805,13.41,0.07457121551081282,1.2,18.057390185890306,0.00043240545000000006
181.03,886.09,31024.0,3.2233e-05,-2.343,0.51316,74.769,17.979,35.217,852.37,-0.049523,128.77,0.10347,supercritical,Ar,C7440371,argon,150.86,48.9805,13.41,0.07457121551081282,1.2,18.0906687355172,0.0004322445300000001