Temperature (K),Pressure (bar),Density (mol/m3),Volume (m3/mol),Internal Energy (kJ/mol),Enthalpy (kJ/mol),Entropy (J/mol*K),Cv (J/mol*K),Cp (J/mol*K),Sound Spd. (m/s),Joule-Thomson (K/bar),Viscosity (uPa*s),Therm. Cond. (W/m*K),Phase,substance,substance_id,substance_name,Tc,Pc,rhoc,Vmc,Tr,Pr,Vmr
135.77,282.99,30456.0,3.2834e-05,-3.085,-2.1558,70.269,18.284,42.195,715.4,-0.030709,125.61,0.094259,liquid,Ar,C7440371,argon,150.86,48.9805,13.41,0.07457121551081282,0.9000000000000001,5.777605373567032,0.00044030394
135.77,284.62,30475.0,3.2814e-05,-3.0876,-2.1537,70.245,18.29,42.157,716.42,-0.030859,125.85,0.094398,liquid,Ar,C7440371,argon,150.86,48.9805,13.41,0.07457121551081282,0.9000000000000001,5.810883923193924,0.00044003574000000005
135.77,286.25,30493.0,3.2795e-05,-3.0903,-2.1516,70.222,18.296,42.118,717.44,-0.031008,126.1,0.094537,liquid,Ar,C7440371,argon,150.86,48.9805,13.41,0.07457121551081282,0.9000000000000001,5.844162472820816,0.0004397809500000001
135.77,287.88,30511.0,3.2775e-05,-3.093,-2.1494,70.198,18.302,42.08,718.45,-0.031156,126.35,0.094675,liquid,Ar,C7440371,argon,150.86,48.9805,13.41,0.07457121551081282,0.9000000000000001,5.877441022447709,0.00043951275
135.77,289.51,30529.0,3.2756e-05,-3.0956,-2.1473,70.174,18.308,42.043,719.46,-0.031303,126.6,0.094813,liquid,Ar,C7440371,argon,150.86,48.9805,13.41,0.07457121551081282,0.9000000000000001,5.910719572074601,0.0004392579600000001
135.77,291.14,30547.0,3.2736e-05,-3.0982,-2.1451,70.151,18.315,42.006,720.47,-0.031448,126.85,0.094951,liquid,Ar,C7440371,argon,150.86,48.9805,13.41,0.07457121551081282,0.9000000000000001,5.943998121701493,0.00043898976000000003
135.77,292.77,30565.0,3.2717e-05,-3.1008,-2.143,70.128,18.321,41.969,721.48,-0.031592,127.1,0.095088,liquid,Ar,C7440371,argon,150.86,48.9805,13.41,0.07457121551081282,0.9000000000000001,5.977276671328386,0.00043873497
135.77,294.4,30583.0,3.2698e-05,-3.1034,-2.1408,70.104,18.327,41.932,722.48,-0.031735,127.34,0.095226,liquid,Ar,C7440371,argon,150.86,48.9805,13.41,0.07457121551081282,0.9000000000000001,6.010555220955278,0.00043848018000000003
135.77,296.03,30601.0,3.2679e-05,-3.106,-2.1386,70.081,18.333,41.896,723.47,-0.031877,127.59,0.095362,liquid,Ar,C7440371,argon,150.86,48.9805,13.41,0.07457121551081282,0.9000000000000001,6.04383377058217,0.00043822539
135.77,297.66,30619.0,3.266e-05,-3.1086,-2.1365,70.058,18.339,41.86,724.46,-0.032018,127.84,0.095499,liquid,Ar,C7440371,argon,150.86,48.9805,13.41,0.07457121551081282,0.9000000000000001,6.077112320209063,0.0004379706000000001
135.77,299.29,30637.0,3.2641e-05,-3.1112,-2.1343,70.035,18.345,41.824,725.45,-0.032157,128.09,0.095635,liquid,Ar,C7440371,argon,150.86,48.9805,13.41,0.07457121551081282,0.9000000000000001,6.110390869835956,0.00043771581000000005
135.77,300.92,30654.0,3.2622e-05,-3.1137,-2.1321,70.012,18.351,41.789,726.44,-0.032296,128.33,0.09577,liquid,Ar,C7440371,argon,150.86,48.9805,13.41,0.07457121551081282,0.9000000000000001,6.143669419462848,0.0004374610200000001
135.77,302.55,30672.0,3.2603e-05,-3.1163,-2.1299,69.989,18.357,41.754,727.42,-0.032433,128.58,0.095906,liquid,Ar,C7440371,argon,150.86,48.9805,13.41,0.07457121551081282,0.9000000000000001,6.17694796908974,0.00043720623000000004
135.77,304.18,30689.0,3.2585e-05,-3.1188,-2.1277,69.966,18.363,41.719,728.4,-0.032569,128.82,0.096041,liquid,Ar,C7440371,argon,150.86,48.9805,13.41,0.07457121551081282,0.9000000000000001,6.210226518716633,0.00043696485000000005
135.77,305.81,30707.0,3.2566e-05,-3.1214,-2.1254,69.943,18.369,41.685,729.38,-0.032704,129.07,0.096176,liquid,Ar,C7440371,argon,150.86,48.9805,13.41,0.07457121551081282,0.9000000000000001,6.2435050683435245,0.00043671006
135.77,307.44,30724.0,3.2548e-05,-3.1239,-2.1232,69.921,18.375,41.65,730.35,-0.032838,129.31,0.09631,liquid,Ar,C7440371,argon,150.86,48.9805,13.41,0.07457121551081282,0.9000000000000001,6.276783617970417,0.00043646868000000007
135.77,309.07,30741.0,3.2529e-05,-3.1264,-2.121,69.898,18.382,41.617,731.32,-0.032971,129.56,0.096444,liquid,Ar,C7440371,argon,150.86,48.9805,13.41,0.07457121551081282,0.9000000000000001,6.310062167597309,0.00043621389000000004
135.77,310.7,30759.0,3.2511e-05,-3.1289,-2.1187,69.875,18.388,41.583,732.28,-0.033103,129.8,0.096578,liquid,Ar,C7440371,argon,150.86,48.9805,13.41,0.07457121551081282,0.9000000000000001,6.343340717224201,0.00043597251000000004
135.77,312.33,30776.0,3.2493e-05,-3.1314,-2.1165,69.853,18.394,41.55,733.25,-0.033234,130.05,0.096712,liquid,Ar,C7440371,argon,150.86,48.9805,13.41,0.07457121551081282,0.9000000000000001,6.376619266851094,0.0004357311300000001
135.77,313.96,30793.0,3.2475e-05,-3.1338,-2.1142,69.831,18.4,41.517,734.21,-0.033364,130.29,0.096845,liquid,Ar,C7440371,argon,150.86,48.9805,13.41,0.07457121551081282,0.9000000000000001,6.409897816477986,0.0004354897500000001
135.77,315.59,30810.0,3.2457e-05,-3.1363,-2.112,69.808,18.406,41.484,735.16,-0.033492,130.54,0.096978,liquid,Ar,C7440371,argon,150.86,48.9805,13.41,0.07457121551081282,0.9000000000000001,6.443176366104878,0.00043524837
135.77,317.22,30827.0,3.2439e-05,-3.1388,-2.1097,69.786,18.412,41.451,736.12,-0.03362,130.78,0.097111,liquid,Ar,C7440371,argon,150.86,48.9805,13.41,0.07457121551081282,0.9000000000000001,6.476454915731772,0.00043500699000000004
135.77,318.85,30844.0,3.2421e-05,-3.1412,-2.1074,69.764,18.418,41.419,737.07,-0.033747,131.02,0.097243,liquid,Ar,C7440371,argon,150.86,48.9805,13.41,0.07457121551081282,0.9000000000000001,6.509733465358663,0.00043476561000000004
135.77,320.48,30861.0,3.2404e-05,-3.1436,-2.1052,69.742,18.424,41.387,738.01,-0.033873,131.26,0.097375,liquid,Ar,C7440371,argon,150.86,48.9805,13.41,0.07457121551081282,0.9000000000000001,6.543012014985556,0.00043453764
135.77,322.11,30877.0,3.2386e-05,-3.1461,-2.1029,69.72,18.43,41.356,738.96,-0.033998,131.51,0.097507,liquid,Ar,C7440371,argon,150.86,48.9805,13.41,0.07457121551081282,0.9000000000000001,6.5762905646124485,0.00043429626
135.77,323.74,30894.0,3.2368e-05,-3.1485,-2.1006,69.698,18.436,41.324,739.9,-0.034122,131.75,0.097639,liquid,Ar,C7440371,argon,150.86,48.9805,13.41,0.07457121551081282,0.9000000000000001,6.60956911423934,0.00043405488
135.77,325.37,30911.0,3.2351e-05,-3.1509,-2.0983,69.676,18.442,41.293,740.83,-0.034245,131.99,0.09777,liquid,Ar,C7440371,argon,150.86,48.9805,13.41,0.07457121551081282,0.9000000000000001,6.642847663866233,0.00043382691000000005
135.77,327.0,30928.0,3.2334e-05,-3.1533,-2.096,69.654,18.448,41.262,741.77,-0.034367,132.23,0.097902,liquid,Ar,C7440371,argon,150.86,48.9805,13.41,0.07457121551081282,0.9000000000000001,6.6761262134931245,0.00043359894000000003
135.77,328.63,30944.0,3.2316e-05,-3.1557,-2.0937,69.632,18.454,41.232,742.7,-0.034488,132.48,0.098033,liquid,Ar,C7440371,argon,150.86,48.9805,13.41,0.07457121551081282,0.9000000000000001,6.709404763120017,0.00043335756000000003
135.77,330.26,30961.0,3.2299e-05,-3.158,-2.0913,69.61,18.46,41.201,743.63,-0.034608,132.72,0.098164,liquid,Ar,C7440371,argon,150.86,48.9805,13.41,0.07457121551081282,0.9000000000000001,6.74268331274691,0.00043312959
135.77,331.89,30977.0,3.2282e-05,-3.1604,-2.089,69.589,18.466,41.171,744.55,-0.034727,132.96,0.098296,liquid,Ar,C7440371,argon,150.86,48.9805,13.41,0.07457121551081282,0.9000000000000001,6.775961862373801,0.00043290162000000004
135.77,333.52,30993.0,3.2265e-05,-3.1628,-2.0867,69.567,18.472,41.141,745.48,-0.034846,133.2,0.098426,liquid,Ar,C7440371,argon,150.86,48.9805,13.41,0.07457121551081282,0.9000000000000001,6.809240412000694,0.00043267365
135.77,335.15,31010.0,3.2248e-05,-3.1651,-2.0843,69.546,18.478,41.111,746.4,-0.034963,133.44,0.098557,liquid,Ar,C7440371,argon,150.86,48.9805,13.41,0.07457121551081282,0.9000000000000001,6.8425189616275865,0.00043244568000000004
135.77,336.78,31026.0,3.2231e-05,-3.1675,-2.082,69.524,18.484,41.082,747.31,-0.03508,133.68,0.098687,liquid,Ar,C7440371,argon,150.86,48.9805,13.41,0.07457121551081282,0.9000000000000001,6.875797511254478,0.00043221771
135.77,338.41,31042.0,3.2214e-05,-3.1698,-2.0796,69.503,18.49,41.053,748.23,-0.035196,133.92,0.098817,liquid,Ar,C7440371,argon,150.86,48.9805,13.41,0.07457121551081282,0.9000000000000001,6.909076060881372,0.00043198974000000005
135.77,340.04,31058.0,3.2197e-05,-3.1721,-2.0773,69.482,18.496,41.024,749.14,-0.03531,134.16,0.098947,liquid,Ar,C7440371,argon,150.86,48.9805,13.41,0.07457121551081282,0.9000000000000001,6.942354610508264,0.00043176177
135.77,341.67,31074.0,3.2181e-05,-3.1744,-2.0749,69.46,18.502,40.995,750.05,-0.035425,134.4,0.099076,liquid,Ar,C7440371,argon,150.86,48.9805,13.41,0.07457121551081282,0.9000000000000001,6.975633160135156,0.0004315472100000001
135.77,343.3,31091.0,3.2164e-05,-3.1767,-2.0725,69.439,18.508,40.966,750.95,-0.035538,134.64,0.099205,liquid,Ar,C7440371,argon,150.86,48.9805,13.41,0.07457121551081282,0.9000000000000001,7.008911709762049,0.00043131924
135.77,344.93,31106.0,3.2148e-05,-3.179,-2.0702,69.418,18.513,40.938,751.85,-0.03565,134.88,0.099334,liquid,Ar,C7440371,argon,150.86,48.9805,13.41,0.07457121551081282,0.9000000000000001,7.042190259388941,0.00043110468
135.77,346.56,31122.0,3.2131e-05,-3.1813,-2.0678,69.397,18.519,40.91,752.76,-0.035762,135.12,0.099462,liquid,Ar,C7440371,argon,150.86,48.9805,13.41,0.07457121551081282,0.9000000000000001,7.075468809015833,0.00043087671000000005
135.77,348.19,31138.0,3.2115e-05,-3.1836,-2.0654,69.376,18.525,40.882,753.65,-0.035873,135.36,0.099591,liquid,Ar,C7440371,argon,150.86,48.9805,13.41,0.07457121551081282,0.9000000000000001,7.1087473586427254,0.00043066215000000006
135.77,349.82,31154.0,3.2098e-05,-3.1859,-2.063,69.355,18.531,40.854,754.55,-0.035983,135.6,0.099719,liquid,Ar,C7440371,argon,150.86,48.9805,13.41,0.07457121551081282,0.9000000000000001,7.142025908269617,0.0004304341800000001
135.77,351.45,31170.0,3.2082e-05,-3.1881,-2.0606,69.334,18.537,40.827,755.44,-0.036092,135.84,0.099846,liquid,Ar,C7440371,argon,150.86,48.9805,13.41,0.07457121551081282,0.9000000000000001,7.17530445789651,0.0004302196200000001
135.77,353.08,31186.0,3.2066e-05,-3.1904,-2.0582,69.314,18.543,40.799,756.33,-0.0362,136.07,0.099974,liquid,Ar,C7440371,argon,150.86,48.9805,13.41,0.07457121551081282,0.9000000000000001,7.208583007523402,0.00043000506000000005
135.77,354.71,31201.0,3.205e-05,-3.1926,-2.0558,69.293,18.549,40.772,757.22,-0.036308,136.31,0.1001,liquid,Ar,C7440371,argon,150.86,48.9805,13.41,0.07457121551081282,0.9000000000000001,7.241861557150294,0.00042979050000000005
135.77,356.34,31217.0,3.2034e-05,-3.1949,-2.0534,69.272,18.555,40.745,758.1,-0.036415,136.55,0.10023,liquid,Ar,C7440371,argon,150.86,48.9805,13.41,0.07457121551081282,0.9000000000000001,7.275140106777187,0.00042957594
135.77,357.97,31232.0,3.2018e-05,-3.1971,-2.051,69.252,18.561,40.719,758.98,-0.036521,136.79,0.10035,liquid,Ar,C7440371,argon,150.86,48.9805,13.41,0.07457121551081282,0.9000000000000001,7.30841865640408,0.00042936138
135.77,359.6,31248.0,3.2002e-05,-3.1993,-2.0485,69.231,18.567,40.692,759.86,-0.036626,137.03,0.10048,liquid,Ar,C7440371,argon,150.86,48.9805,13.41,0.07457121551081282,0.9000000000000001,7.341697206030972,0.00042914682000000007
135.77,361.23,31263.0,3.1986e-05,-3.2015,-2.0461,69.211,18.572,40.666,760.74,-0.036731,137.26,0.10061,liquid,Ar,C7440371,argon,150.86,48.9805,13.41,0.07457121551081282,0.9000000000000001,7.374975755657864,0.0004289322600000001
135.77,362.86,31279.0,3.197e-05,-3.2037,-2.0437,69.19,18.578,40.64,761.61,-0.036835,137.5,0.10073,liquid,Ar,C7440371,argon,150.86,48.9805,13.41,0.07457121551081282,0.9000000000000001,7.408254305284757,0.00042871770000000003
135.77,364.49,31294.0,3.1955e-05,-3.2059,-2.0412,69.17,18.584,40.614,762.48,-0.036938,137.74,0.10086,liquid,Ar,C7440371,argon,150.86,48.9805,13.41,0.07457121551081282,0.9000000000000001,7.441532854911649,0.00042851655000000007
135.77,366.12,31310.0,3.1939e-05,-3.2081,-2.0388,69.149,18.59,40.588,763.35,-0.03704,137.98,0.10098,liquid,Ar,C7440371,argon,150.86,48.9805,13.41,0.07457121551081282,0.9000000000000001,7.474811404538541,0.0004283019900000001
135.77,367.75,31325.0,3.1924e-05,-3.2103,-2.0363,69.129,18.596,40.563,764.22,-0.037142,138.21,0.10111,liquid,Ar,C7440371,argon,150.86,48.9805,13.41,0.07457121551081282,0.9000000000000001,7.508089954165433,0.00042810084000000006
135.77,369.38,31340.0,3.1908e-05,-3.2125,-2.0339,69.109,18.602,40.537,765.08,-0.037243,138.45,0.10123,liquid,Ar,C7440371,argon,150.86,48.9805,13.41,0.07457121551081282,0.9000000000000001,7.5413685037923255,0.00042788628000000006
135.77,371.01,31355.0,3.1893e-05,-3.2146,-2.0314,69.089,18.607,40.512,765.94,-0.037344,138.69,0.10136,liquid,Ar,C7440371,argon,150.86,48.9805,13.41,0.07457121551081282,0.9000000000000001,7.574647053419218,0.00042768513000000005
135.77,372.64,31370.0,3.1877e-05,-3.2168,-2.0289,69.069,18.613,40.487,766.8,-0.037443,138.92,0.10148,liquid,Ar,C7440371,argon,150.86,48.9805,13.41,0.07457121551081282,0.9000000000000001,7.60792560304611,0.00042747057000000005
135.77,374.27,31385.0,3.1862e-05,-3.2189,-2.0264,69.049,18.619,40.463,767.66,-0.037542,139.16,0.10161,liquid,Ar,C7440371,argon,150.86,48.9805,13.41,0.07457121551081282,0.9000000000000001,7.641204152673002,0.00042726942000000003
135.77,375.9,31400.0,3.1847e-05,-3.2211,-2.024,69.029,18.625,40.438,768.51,-0.03764,139.39,0.10173,liquid,Ar,C7440371,argon,150.86,48.9805,13.41,0.07457121551081282,0.9000000000000001,7.674482702299895,0.00042706827000000007
135.77,377.53,31415.0,3.1832e-05,-3.2232,-2.0215,69.009,18.631,40.413,769.36,-0.037738,139.63,0.10186,liquid,Ar,C7440371,argon,150.86,48.9805,13.41,0.07457121551081282,0.9000000000000001,7.707761251926787,0.0004268671200000001
135.77,379.16,31430.0,3.1816e-05,-3.2253,-2.019,68.989,18.637,40.389,770.21,-0.037835,139.86,0.10198,liquid,Ar,C7440371,argon,150.86,48.9805,13.41,0.07457121551081282,0.9000000000000001,7.74103980155368,0.00042665256000000006
135.77,380.79,31445.0,3.1801e-05,-3.2275,-2.0165,68.969,18.642,40.365,771.06,-0.037931,140.1,0.1021,liquid,Ar,C7440371,argon,150.86,48.9805,13.41,0.07457121551081282,0.9000000000000001,7.774318351180573,0.0004264514100000001
135.77,382.42,31460.0,3.1786e-05,-3.2296,-2.014,68.949,18.648,40.341,771.9,-0.038027,140.34,0.10222,liquid,Ar,C7440371,argon,150.86,48.9805,13.41,0.07457121551081282,0.9000000000000001,7.807596900807464,0.00042625026
135.77,384.05,31475.0,3.1771e-05,-3.2317,-2.0115,68.93,18.654,40.317,772.75,-0.038122,140.57,0.10235,liquid,Ar,C7440371,argon,150.86,48.9805,13.41,0.07457121551081282,0.9000000000000001,7.840875450434357,0.00042604911
135.77,385.68,31490.0,3.1757e-05,-3.2338,-2.009,68.91,18.66,40.294,773.59,-0.038216,140.81,0.10247,liquid,Ar,C7440371,argon,150.86,48.9805,13.41,0.07457121551081282,0.9000000000000001,7.8741540000612495,0.0004258613700000001
135.77,387.31,31504.0,3.1742e-05,-3.2359,-2.0065,68.89,18.665,40.27,774.42,-0.03831,141.04,0.10259,liquid,Ar,C7440371,argon,150.86,48.9805,13.41,0.07457121551081282,0.9000000000000001,7.907432549688141,0.00042566022000000006
135.77,388.94,31519.0,3.1727e-05,-3.238,-2.004,68.871,18.671,40.247,775.26,-0.038403,141.27,0.10271,liquid,Ar,C7440371,argon,150.86,48.9805,13.41,0.07457121551081282,0.9000000000000001,7.940711099315034,0.0004254590700000001
135.77,390.57,31534.0,3.1712e-05,-3.24,-2.0014,68.851,18.677,40.224,776.09,-0.038496,141.51,0.10284,liquid,Ar,C7440371,argon,150.86,48.9805,13.41,0.07457121551081282,0.9000000000000001,7.9739896489419255,0.00042525792
135.77,392.2,31548.0,3.1698e-05,-3.2421,-1.9989,68.832,18.683,40.201,776.92,-0.038588,141.74,0.10296,liquid,Ar,C7440371,argon,150.86,48.9805,13.41,0.07457121551081282,0.9000000000000001,8.007268198568818,0.00042507018000000003
135.77,393.83,31563.0,3.1683e-05,-3.2442,-1.9964,68.812,18.688,40.178,777.75,-0.038679,141.98,0.10308,liquid,Ar,C7440371,argon,150.86,48.9805,13.41,0.07457121551081282,0.9000000000000001,8.04054674819571,0.00042486903000000007
135.77,395.46,31577.0,3.1669e-05,-3.2462,-1.9939,68.793,18.694,40.156,778.58,-0.03877,142.21,0.1032,liquid,Ar,C7440371,argon,150.86,48.9805,13.41,0.07457121551081282,0.9000000000000001,8.073825297822603,0.00042468129000000003
135.77,397.09,31592.0,3.1654e-05,-3.2483,-1.9913,68.774,18.7,40.133,779.4,-0.03886,142.45,0.10332,liquid,Ar,C7440371,argon,150.86,48.9805,13.41,0.07457121551081282,0.9000000000000001,8.107103847449494,0.00042448014
135.77,398.72,31606.0,3.164e-05,-3.2503,-1.9888,68.754,18.706,40.111,780.23,-0.038949,142.68,0.10344,liquid,Ar,C7440371,argon,150.86,48.9805,13.41,0.07457121551081282,0.9000000000000001,8.140382397076388,0.0004242924000000001
135.77,400.35,31620.0,3.1625e-05,-3.2523,-1.9862,68.735,18.711,40.089,781.05,-0.039038,142.91,0.10356,liquid,Ar,C7440371,argon,150.86,48.9805,13.41,0.07457121551081282,0.9000000000000001,8.173660946703281,0.00042409125000000006
135.77,401.98,31635.0,3.1611e-05,-3.2544,-1.9837,68.716,18.717,40.067,781.86,-0.039126,143.15,0.10368,liquid,Ar,C7440371,argon,150.86,48.9805,13.41,0.07457121551081282,0.9000000000000001,8.206939496330172,0.00042390351
135.77,403.61,31649.0,3.1597e-05,-3.2564,-1.9811,68.697,18.723,40.045,782.68,-0.039214,143.38,0.1038,liquid,Ar,C7440371,argon,150.86,48.9805,13.41,0.07457121551081282,0.9000000000000001,8.240218045957064,0.0004237157700000001
135.77,405.24,31663.0,3.1583e-05,-3.2584,-1.9785,68.678,18.728,40.023,783.49,-0.039301,143.61,0.10392,liquid,Ar,C7440371,argon,150.86,48.9805,13.41,0.07457121551081282,0.9000000000000001,8.273496595583957,0.00042352803000000004
135.77,406.87,31677.0,3.1568e-05,-3.2604,-1.976,68.659,18.734,40.001,784.31,-0.039388,143.85,0.10404,liquid,Ar,C7440371,argon,150.86,48.9805,13.41,0.07457121551081282,0.9000000000000001,8.30677514521085,0.00042332688
135.77,408.5,31691.0,3.1554e-05,-3.2624,-1.9734,68.64,18.74,39.98,785.12,-0.039474,144.08,0.10416,liquid,Ar,C7440371,argon,150.86,48.9805,13.41,0.07457121551081282,0.9000000000000001,8.340053694837742,0.0004231391400000001
135.77,410.13,31706.0,3.154e-05,-3.2644,-1.9708,68.621,18.745,39.959,785.92,-0.03956,144.31,0.10428,liquid,Ar,C7440371,argon,150.86,48.9805,13.41,0.07457121551081282,0.9000000000000001,8.373332244464635,0.00042295140000000005
135.77,411.76,31720.0,3.1526e-05,-3.2664,-1.9683,68.602,18.751,39.937,786.73,-0.039645,144.54,0.1044,liquid,Ar,C7440371,argon,150.86,48.9805,13.41,0.07457121551081282,0.9000000000000001,8.406610794091526,0.00042276366000000006
135.77,413.39,31734.0,3.1512e-05,-3.2684,-1.9657,68.583,18.757,39.916,787.53,-0.039729,144.78,0.10452,liquid,Ar,C7440371,argon,150.86,48.9805,13.41,0.07457121551081282,0.9000000000000001,8.439889343718418,0.00042257592
135.77,415.02,31748.0,3.1498e-05,-3.2703,-1.9631,68.565,18.762,39.896,788.33,-0.039813,145.01,0.10464,liquid,Ar,C7440371,argon,150.86,48.9805,13.41,0.07457121551081282,0.9000000000000001,8.47316789334531,0.0004223881800000001
135.77,416.65,31762.0,3.1485e-05,-3.2723,-1.9605,68.546,18.768,39.875,789.13,-0.039896,145.24,0.10475,liquid,Ar,C7440371,argon,150.86,48.9805,13.41,0.07457121551081282,0.9000000000000001,8.506446442972203,0.0004222138500000001
135.77,418.28,31775.0,3.1471e-05,-3.2743,-1.9579,68.527,18.774,39.854,789.93,-0.039979,145.47,0.10487,liquid,Ar,C7440371,argon,150.86,48.9805,13.41,0.07457121551081282,0.9000000000000001,8.539724992599096,0.00042202611
135.77,419.91,31789.0,3.1457e-05,-3.2762,-1.9553,68.509,18.779,39.834,790.73,-0.040061,145.71,0.10499,liquid,Ar,C7440371,argon,150.86,48.9805,13.41,0.07457121551081282,0.9000000000000001,8.573003542225988,0.00042183837000000005
135.77,421.54,31803.0,3.1443e-05,-3.2782,-1.9527,68.49,18.785,39.813,791.52,-0.040143,145.94,0.10511,liquid,Ar,C7440371,argon,150.86,48.9805,13.41,0.07457121551081282,0.9000000000000001,8.606282091852881,0.00042165063
135.77,423.17,31817.0,3.143e-05,-3.2801,-1.9501,68.471,18.791,39.793,792.31,-0.040224,146.17,0.10522,liquid,Ar,C7440371,argon,150.86,48.9805,13.41,0.07457121551081282,0.9000000000000001,8.639560641479774,0.00042147630000000005