Temperature (K),Pressure (bar),Density (mol/m3),Volume (m3/mol),Internal Energy (kJ/mol),Enthalpy (kJ/mol),Entropy (J/mol*K),Cv (J/mol*K),Cp (J/mol*K),Sound Spd. (m/s),Joule-Thomson (K/bar),Viscosity (uPa*s),Therm. Cond. (W/m*K),Phase,substance,substance_id,substance_name,Tc,Pc,rhoc,Vmc,Tr,Pr,Vmr
1164.6,657.0,7235.7,0.0001382,65.45,74.53,118.8,38.448,54.171,826.46,0.11429,48.683,0.18936,supercritical,H2O,C7732185,water,647.0,220.64,17.9,0.0558659217877095,1.8000000000000003,2.9777012327773753,0.0024737799999999996
1164.6,664.35,7319.8,0.00013662,65.408,74.484,118.68,38.481,54.29,826.95,0.11374,48.753,0.19031,supercritical,H2O,C7732185,water,647.0,220.64,17.9,0.0558659217877095,1.8000000000000003,3.0110134155184918,0.002445498
1164.6,671.7,7404.0,0.00013506,65.367,74.439,118.55,38.515,54.407,827.45,0.11318,48.823,0.19127,supercritical,H2O,C7732185,water,647.0,220.64,17.9,0.0558659217877095,1.8000000000000003,3.0443255982596087,0.0024175739999999996
1164.6,679.05,7488.1,0.00013354,65.325,74.394,118.43,38.548,54.525,827.95,0.11262,48.893,0.19222,supercritical,H2O,C7732185,water,647.0,220.64,17.9,0.0558659217877095,1.8000000000000003,3.077637781000725,0.0023903659999999997
1164.6,686.4,7572.3,0.00013206,65.284,74.349,118.31,38.581,54.642,828.47,0.11207,48.964,0.19318,supercritical,H2O,C7732185,water,647.0,220.64,17.9,0.0558659217877095,1.8000000000000003,3.110949963741842,0.0023638739999999997
1164.6,693.74,7656.4,0.00013061,65.243,74.304,118.19,38.614,54.758,828.99,0.11151,49.035,0.19414,supercritical,H2O,C7732185,water,647.0,220.64,17.9,0.0558659217877095,1.8000000000000003,3.144216823785352,0.002337919
1164.6,701.09,7740.6,0.00012919,65.202,74.259,118.07,38.647,54.875,829.53,0.11095,49.106,0.19511,supercritical,H2O,C7732185,water,647.0,220.64,17.9,0.0558659217877095,1.8000000000000003,3.177529006526469,0.002312501
1164.6,708.44,7824.8,0.0001278,65.16,74.214,117.95,38.679,54.99,830.07,0.1104,49.177,0.19607,supercritical,H2O,C7732185,water,647.0,220.64,17.9,0.0558659217877095,1.8000000000000003,3.2108411892675854,0.0022876199999999998
1164.6,715.79,7908.9,0.00012644,65.119,74.17,117.83,38.712,55.106,830.62,0.10984,49.248,0.19704,supercritical,H2O,C7732185,water,647.0,220.64,17.9,0.0558659217877095,1.8000000000000003,3.244153372008702,0.002263276
1164.6,723.14,7993.1,0.00012511,65.078,74.125,117.71,38.744,55.22,831.18,0.10928,49.32,0.19801,supercritical,H2O,C7732185,water,647.0,220.64,17.9,0.0558659217877095,1.8000000000000003,3.277465554749819,0.002239469
1164.6,730.49,8077.2,0.0001238,65.037,74.081,117.59,38.776,55.335,831.75,0.10873,49.392,0.19898,supercritical,H2O,C7732185,water,647.0,220.64,17.9,0.0558659217877095,1.8000000000000003,3.3107777374909357,0.00221602
1164.6,737.83,8161.4,0.00012253,64.996,74.037,117.48,38.808,55.449,832.33,0.10817,49.464,0.19995,supercritical,H2O,C7732185,water,647.0,220.64,17.9,0.0558659217877095,1.8000000000000003,3.3440445975344457,0.002193287
1164.6,745.18,8245.5,0.00012128,64.955,73.993,117.36,38.84,55.562,832.92,0.10762,49.536,0.20093,supercritical,H2O,C7732185,water,647.0,220.64,17.9,0.0558659217877095,1.8000000000000003,3.377356780275562,0.002170912
1164.6,752.53,8329.6,0.00012005,64.915,73.949,117.25,38.872,55.675,833.52,0.10706,49.608,0.20191,supercritical,H2O,C7732185,water,647.0,220.64,17.9,0.0558659217877095,1.8000000000000003,3.4106689630166787,0.002148895
1164.6,759.88,8413.7,0.00011885,64.874,73.905,117.14,38.903,55.788,834.12,0.1065,49.681,0.20289,supercritical,H2O,C7732185,water,647.0,220.64,17.9,0.0558659217877095,1.8000000000000003,3.4439811457577956,0.0021274149999999997
1164.6,767.23,8497.7,0.00011768,64.833,73.862,117.02,38.934,55.9,834.73,0.10595,49.753,0.20387,supercritical,H2O,C7732185,water,647.0,220.64,17.9,0.0558659217877095,1.8000000000000003,3.4772933284989125,0.002106472
1164.6,774.58,8581.8,0.00011653,64.792,73.818,116.91,38.966,56.011,835.36,0.1054,49.826,0.20485,supercritical,H2O,C7732185,water,647.0,220.64,17.9,0.0558659217877095,1.8000000000000003,3.5106055112400294,0.002085887
1164.6,781.92,8665.8,0.0001154,64.752,73.775,116.8,38.997,56.123,835.99,0.10484,49.899,0.20583,supercritical,H2O,C7732185,water,647.0,220.64,17.9,0.0558659217877095,1.8000000000000003,3.543872371283539,0.00206566
1164.6,789.27,8749.8,0.00011429,64.711,73.732,116.69,39.028,56.233,836.63,0.10429,49.972,0.20682,supercritical,H2O,C7732185,water,647.0,220.64,17.9,0.0558659217877095,1.8000000000000003,3.577184554024656,0.002045791
1164.6,796.62,8833.7,0.0001132,64.671,73.689,116.58,39.059,56.343,837.28,0.10374,50.046,0.20781,supercritical,H2O,C7732185,water,647.0,220.64,17.9,0.0558659217877095,1.8000000000000003,3.6104967367657728,0.00202628
1164.6,803.97,8917.6,0.00011214,64.63,73.646,116.48,39.089,56.453,837.93,0.10319,50.119,0.2088,supercritical,H2O,C7732185,water,647.0,220.64,17.9,0.0558659217877095,1.8000000000000003,3.6438089195068892,0.002007306
1164.6,811.32,9001.5,0.00011109,64.59,73.603,116.37,39.12,56.561,838.6,0.10263,50.192,0.20979,supercritical,H2O,C7732185,water,647.0,220.64,17.9,0.0558659217877095,1.8000000000000003,3.677121102248006,0.0019885109999999997
1164.6,818.66,9085.4,0.00011007,64.55,73.56,116.26,39.15,56.67,839.27,0.10208,50.266,0.21078,supercritical,H2O,C7732185,water,647.0,220.64,17.9,0.0558659217877095,1.8000000000000003,3.7103879622915157,0.001970253
1164.6,826.01,9169.2,0.00010906,64.509,73.518,116.16,39.18,56.778,839.96,0.10153,50.34,0.21177,supercritical,H2O,C7732185,water,647.0,220.64,17.9,0.0558659217877095,1.8000000000000003,3.7437001450326326,0.0019521739999999999
1164.6,833.36,9252.9,0.00010807,64.469,73.476,116.05,39.21,56.885,840.65,0.10099,50.414,0.21276,supercritical,H2O,C7732185,water,647.0,220.64,17.9,0.0558659217877095,1.8000000000000003,3.7770123277737495,0.0019344529999999998
1164.6,840.71,9336.6,0.00010711,64.429,73.434,115.95,39.24,56.992,841.35,0.10044,50.488,0.21376,supercritical,H2O,C7732185,water,647.0,220.64,17.9,0.0558659217877095,1.8000000000000003,3.8103245105148664,0.0019172689999999999
1164.6,848.06,9420.3,0.00010615,64.389,73.392,115.85,39.27,57.098,842.05,0.099893,50.562,0.21476,supercritical,H2O,C7732185,water,647.0,220.64,17.9,0.0558659217877095,1.8000000000000003,3.8436366932559825,0.001900085
1164.6,855.41,9503.9,0.00010522,64.349,73.35,115.74,39.3,57.204,842.77,0.099347,50.636,0.21575,supercritical,H2O,C7732185,water,647.0,220.64,17.9,0.0558659217877095,1.8000000000000003,3.8769488759970994,0.0018834379999999999
1164.6,862.75,9587.5,0.0001043,64.309,73.308,115.64,39.329,57.309,843.49,0.098803,50.711,0.21675,supercritical,H2O,C7732185,water,647.0,220.64,17.9,0.0558659217877095,1.8000000000000003,3.9102157360406093,0.00186697
1164.6,870.1,9671.0,0.0001034,64.27,73.267,115.54,39.358,57.413,844.23,0.098259,50.785,0.21775,supercritical,H2O,C7732185,water,647.0,220.64,17.9,0.0558659217877095,1.8000000000000003,3.9435279187817263,0.00185086
1164.6,877.45,9754.4,0.00010252,64.23,73.225,115.44,39.388,57.517,844.97,0.097717,50.86,0.21875,supercritical,H2O,C7732185,water,647.0,220.64,17.9,0.0558659217877095,1.8000000000000003,3.976840101522843,0.001835108
1164.6,884.8,9837.8,0.00010165,64.19,73.184,115.34,39.417,57.62,845.72,0.097176,50.935,0.21975,supercritical,H2O,C7732185,water,647.0,220.64,17.9,0.0558659217877095,1.8000000000000003,4.01015228426396,0.001819535
1164.6,892.15,9921.2,0.00010079,64.151,73.143,115.24,39.445,57.723,846.48,0.096636,51.009,0.22076,supercritical,H2O,C7732185,water,647.0,220.64,17.9,0.0558659217877095,1.8000000000000003,4.043464467005077,0.001804141
1164.6,899.5,10004.0,9.9956e-05,64.111,73.102,115.14,39.474,57.825,847.24,0.096097,51.084,0.22176,supercritical,H2O,C7732185,water,647.0,220.64,17.9,0.0558659217877095,1.8000000000000003,4.0767766497461935,0.0017892124
1164.6,906.84,10088.0,9.9131e-05,64.072,73.061,115.04,39.503,57.926,848.02,0.09556,51.159,0.22276,supercritical,H2O,C7732185,water,647.0,220.64,17.9,0.0558659217877095,1.8000000000000003,4.110043509789703,0.0017744449
1164.6,914.19,10171.0,9.8321e-05,64.032,73.021,114.95,39.531,58.027,848.8,0.095023,51.234,0.22377,supercritical,H2O,C7732185,water,647.0,220.64,17.9,0.0558659217877095,1.8000000000000003,4.14335569253082,0.0017599458999999998
1164.6,921.54,10254.0,9.7524e-05,63.993,72.98,114.85,39.559,58.127,849.59,0.094488,51.309,0.22477,supercritical,H2O,C7732185,water,647.0,220.64,17.9,0.0558659217877095,1.8000000000000003,4.176667875271936,0.0017456795999999998
1164.6,928.89,10337.0,9.6741e-05,63.954,72.94,114.75,39.587,58.227,850.39,0.093955,51.385,0.22578,supercritical,H2O,C7732185,water,647.0,220.64,17.9,0.0558659217877095,1.8000000000000003,4.209980058013053,0.0017316639
1164.6,936.24,10420.0,9.5971e-05,63.915,72.9,114.66,39.615,58.326,851.19,0.093423,51.46,0.22679,supercritical,H2O,C7732185,water,647.0,220.64,17.9,0.0558659217877095,1.8000000000000003,4.24329224075417,0.0017178809
1164.6,943.59,10503.0,9.5214e-05,63.876,72.86,114.56,39.643,58.424,852.01,0.092892,51.535,0.22779,supercritical,H2O,C7732185,water,647.0,220.64,17.9,0.0558659217877095,1.8000000000000003,4.276604423495287,0.0017043306
1164.6,950.93,10585.0,9.447e-05,63.837,72.82,114.47,39.671,58.522,852.83,0.092362,51.611,0.2288,supercritical,H2O,C7732185,water,647.0,220.64,17.9,0.0558659217877095,1.8000000000000003,4.309871283538796,0.0016910129999999999
1164.6,958.28,10668.0,9.3737e-05,63.798,72.78,114.38,39.698,58.619,853.66,0.091834,51.686,0.22981,supercritical,H2O,C7732185,water,647.0,220.64,17.9,0.0558659217877095,1.8000000000000003,4.343183466279913,0.0016778923
1164.6,965.63,10751.0,9.3017e-05,63.759,72.741,114.28,39.726,58.715,854.5,0.091307,51.762,0.23082,supercritical,H2O,C7732185,water,647.0,220.64,17.9,0.0558659217877095,1.8000000000000003,4.37649564902103,0.0016650042999999998
1164.6,972.98,10833.0,9.2309e-05,63.72,72.702,114.19,39.753,58.811,855.34,0.090782,51.838,0.23182,supercritical,H2O,C7732185,water,647.0,220.64,17.9,0.0558659217877095,1.8000000000000003,4.409807831762147,0.0016523311
1164.6,980.33,10916.0,9.1611e-05,63.682,72.662,114.1,39.78,58.906,856.2,0.090258,51.913,0.23283,supercritical,H2O,C7732185,water,647.0,220.64,17.9,0.0558659217877095,1.8000000000000003,4.443120014503264,0.0016398368999999999
1164.6,987.68,10998.0,9.0925e-05,63.643,72.623,114.01,39.807,59.001,857.06,0.089736,51.989,0.23384,supercritical,H2O,C7732185,water,647.0,220.64,17.9,0.0558659217877095,1.8000000000000003,4.47643219724438,0.0016275575
1164.6,995.02,11080.0,9.025e-05,63.604,72.585,113.92,39.834,59.094,857.93,0.089215,52.065,0.23485,supercritical,H2O,C7732185,water,647.0,220.64,17.9,0.0558659217877095,1.8000000000000003,4.50969905728789,0.001615475
1164.6,1002.4,11162.0,8.9586e-05,63.566,72.546,113.83,39.86,59.187,858.8,0.088696,52.141,0.23586,supercritical,H2O,C7732185,water,647.0,220.64,17.9,0.0558659217877095,1.8000000000000003,4.543147208121828,0.0016035894
1164.6,1009.7,11245.0,8.8932e-05,63.528,72.507,113.74,39.887,59.28,859.69,0.088179,52.217,0.23687,supercritical,H2O,C7732185,water,647.0,220.64,17.9,0.0558659217877095,1.8000000000000003,4.576232777374909,0.0015918827999999998
1164.6,1017.1,11327.0,8.8289e-05,63.49,72.469,113.65,39.913,59.372,860.58,0.087663,52.293,0.23788,supercritical,H2O,C7732185,water,647.0,220.64,17.9,0.0558659217877095,1.8000000000000003,4.609771573604061,0.0015803730999999998
1164.6,1024.4,11408.0,8.7655e-05,63.451,72.431,113.56,39.939,59.463,861.48,0.087148,52.369,0.23889,supercritical,H2O,C7732185,water,647.0,220.64,17.9,0.0558659217877095,1.8000000000000003,4.642857142857143,0.0015690245
1164.6,1031.8,11490.0,8.7031e-05,63.413,72.393,113.47,39.965,59.553,862.39,0.086635,52.445,0.2399,supercritical,H2O,C7732185,water,647.0,220.64,17.9,0.0558659217877095,1.8000000000000003,4.676395939086294,0.0015578548999999999
1164.6,1039.1,11572.0,8.6417e-05,63.375,72.355,113.39,39.991,59.643,863.3,0.086124,52.521,0.24091,supercritical,H2O,C7732185,water,647.0,220.64,17.9,0.0558659217877095,1.8000000000000003,4.709481508339376,0.0015468643
1164.6,1046.5,11653.0,8.5812e-05,63.338,72.317,113.3,40.017,59.732,864.22,0.085615,52.597,0.24192,supercritical,H2O,C7732185,water,647.0,220.64,17.9,0.0558659217877095,1.8000000000000003,4.743020304568528,0.0015360347999999998
1164.6,1053.8,11735.0,8.5216e-05,63.3,72.28,113.21,40.043,59.82,865.15,0.085107,52.674,0.24293,supercritical,H2O,C7732185,water,647.0,220.64,17.9,0.0558659217877095,1.8000000000000003,4.77610587382161,0.0015253664
1164.6,1061.2,11816.0,8.4629e-05,63.262,72.243,113.13,40.068,59.908,866.09,0.084601,52.75,0.24393,supercritical,H2O,C7732185,water,647.0,220.64,17.9,0.0558659217877095,1.8000000000000003,4.809644670050762,0.0015148591
1164.6,1068.5,11897.0,8.4051e-05,63.225,72.206,113.04,40.093,59.995,867.03,0.084096,52.826,0.24494,supercritical,H2O,C7732185,water,647.0,220.64,17.9,0.0558659217877095,1.8000000000000003,4.842730239303844,0.0015045128999999998
1164.6,1075.9,11979.0,8.3482e-05,63.187,72.169,112.96,40.118,60.081,867.99,0.083593,52.902,0.24595,supercritical,H2O,C7732185,water,647.0,220.64,17.9,0.0558659217877095,1.8000000000000003,4.876269035532996,0.0014943277999999998
1164.6,1083.2,12060.0,8.2921e-05,63.15,72.132,112.87,40.144,60.166,868.94,0.083092,52.979,0.24696,supercritical,H2O,C7732185,water,647.0,220.64,17.9,0.0558659217877095,1.8000000000000003,4.909354604786078,0.0014842859
1164.6,1090.6,12141.0,8.2369e-05,63.112,72.095,112.79,40.168,60.251,869.91,0.082593,53.055,0.24797,supercritical,H2O,C7732185,water,647.0,220.64,17.9,0.0558659217877095,1.8000000000000003,4.942893401015228,0.0014744050999999998
1164.6,1097.9,12221.0,8.1824e-05,63.075,72.059,112.71,40.193,60.335,870.88,0.082095,53.131,0.24897,supercritical,H2O,C7732185,water,647.0,220.64,17.9,0.0558659217877095,1.8000000000000003,4.9759789702683115,0.0014646495999999997
1164.6,1105.2,12302.0,8.1288e-05,63.038,72.022,112.63,40.218,60.419,871.86,0.081599,53.208,0.24998,supercritical,H2O,C7732185,water,647.0,220.64,17.9,0.0558659217877095,1.8000000000000003,5.009064539521392,0.0014550551999999999
1164.6,1112.6,12383.0,8.0759e-05,63.001,71.986,112.54,40.242,60.501,872.85,0.081105,53.284,0.25099,supercritical,H2O,C7732185,water,647.0,220.64,17.9,0.0558659217877095,1.8000000000000003,5.0426033357505435,0.0014455861
1164.6,1119.9,12463.0,8.0238e-05,62.964,71.95,112.46,40.267,60.583,873.85,0.080613,53.361,0.25199,supercritical,H2O,C7732185,water,647.0,220.64,17.9,0.0558659217877095,1.8000000000000003,5.075688905003626,0.0014362601999999998
1164.6,1127.3,12543.0,7.9724e-05,62.927,71.914,112.38,40.291,60.665,874.85,0.080122,53.437,0.253,supercritical,H2O,C7732185,water,647.0,220.64,17.9,0.0558659217877095,1.8000000000000003,5.109227701232777,0.0014270595999999998
1164.6,1134.6,12623.0,7.9217e-05,62.89,71.879,112.3,40.315,60.745,875.86,0.079633,53.513,0.254,supercritical,H2O,C7732185,water,647.0,220.64,17.9,0.0558659217877095,1.8000000000000003,5.142313270485859,0.0014179842999999998
1164.6,1142.0,12704.0,7.8718e-05,62.854,71.843,112.22,40.339,60.825,876.87,0.079146,53.59,0.255,supercritical,H2O,C7732185,water,647.0,220.64,17.9,0.0558659217877095,1.8000000000000003,5.175852066715011,0.0014090522
1164.6,1149.3,12783.0,7.8226e-05,62.817,71.808,112.14,40.363,60.904,877.9,0.078661,53.666,0.25601,supercritical,H2O,C7732185,water,647.0,220.64,17.9,0.0558659217877095,1.8000000000000003,5.208937635968093,0.0014002454
1164.6,1156.7,12863.0,7.7741e-05,62.781,71.773,112.06,40.386,60.983,878.93,0.078177,53.743,0.25701,supercritical,H2O,C7732185,water,647.0,220.64,17.9,0.0558659217877095,1.8000000000000003,5.242476432197245,0.0013915638999999998
1164.6,1164.0,12943.0,7.7262e-05,62.744,71.738,111.98,40.41,61.061,879.96,0.077696,53.819,0.25801,supercritical,H2O,C7732185,water,647.0,220.64,17.9,0.0558659217877095,1.8000000000000003,5.275562001450327,0.0013829898
1164.6,1171.4,13022.0,7.6791e-05,62.708,71.703,111.9,40.433,61.138,881.01,0.077216,53.896,0.25901,supercritical,H2O,C7732185,water,647.0,220.64,17.9,0.0558659217877095,1.8000000000000003,5.309100797679479,0.0013745589
1164.6,1178.7,13102.0,7.6325e-05,62.672,71.669,111.82,40.456,61.214,882.06,0.076738,53.972,0.26001,supercritical,H2O,C7732185,water,647.0,220.64,17.9,0.0558659217877095,1.8000000000000003,5.342186366932561,0.0013662174999999998
1164.6,1186.1,13181.0,7.5866e-05,62.636,71.634,111.75,40.479,61.289,883.11,0.076262,54.049,0.26101,supercritical,H2O,C7732185,water,647.0,220.64,17.9,0.0558659217877095,1.8000000000000003,5.375725163161711,0.0013580013999999999
1164.6,1193.4,13260.0,7.5414e-05,62.6,71.6,111.67,40.502,61.364,884.18,0.075787,54.125,0.26201,supercritical,H2O,C7732185,water,647.0,220.64,17.9,0.0558659217877095,1.8000000000000003,5.4088107324147945,0.0013499106
1164.6,1200.8,13339.0,7.4967e-05,62.564,71.566,111.59,40.525,61.438,885.25,0.075315,54.202,0.26301,supercritical,H2O,C7732185,water,647.0,220.64,17.9,0.0558659217877095,1.8000000000000003,5.442349528643945,0.0013419093
1164.6,1208.1,13418.0,7.4527e-05,62.528,71.532,111.52,40.548,61.512,886.33,0.074844,54.278,0.264,supercritical,H2O,C7732185,water,647.0,220.64,17.9,0.0558659217877095,1.8000000000000003,5.4754350978970265,0.0013340333
1164.6,1215.5,13497.0,7.4092e-05,62.492,71.498,111.44,40.57,61.585,887.41,0.074375,54.355,0.265,supercritical,H2O,C7732185,water,647.0,220.64,17.9,0.0558659217877095,1.8000000000000003,5.5089738941261785,0.0013262467999999997
1164.6,1222.8,13575.0,7.3663e-05,62.457,71.464,111.37,40.593,61.657,888.5,0.073908,54.431,0.26599,supercritical,H2O,C7732185,water,647.0,220.64,17.9,0.0558659217877095,1.8000000000000003,5.54205946337926,0.0013185677
1164.6,1230.2,13654.0,7.324e-05,62.421,71.431,111.29,40.615,61.728,889.6,0.073443,54.508,0.26699,supercritical,H2O,C7732185,water,647.0,220.64,17.9,0.0558659217877095,1.8000000000000003,5.575598259608412,0.0013109959999999998
1164.6,1237.5,13732.0,7.2823e-05,62.386,71.398,111.22,40.637,61.798,890.7,0.07298,54.584,0.26798,supercritical,H2O,C7732185,water,647.0,220.64,17.9,0.0558659217877095,1.8000000000000003,5.608683828861494,0.0013035317
1164.6,1244.9,13810.0,7.2411e-05,62.351,71.365,111.14,40.659,61.868,891.81,0.072519,54.661,0.26897,supercritical,H2O,C7732185,water,647.0,220.64,17.9,0.0558659217877095,1.8000000000000003,5.642222625090646,0.0012961568999999998
1164.6,1252.2,13888.0,7.2004e-05,62.315,71.332,111.07,40.681,61.937,892.93,0.072059,54.737,0.26996,supercritical,H2O,C7732185,water,647.0,220.64,17.9,0.0558659217877095,1.8000000000000003,5.675308194343728,0.0012888715999999998
1164.6,1259.6,13966.0,7.1603e-05,62.28,71.299,110.99,40.703,62.006,894.05,0.071602,54.814,0.27095,supercritical,H2O,C7732185,water,647.0,220.64,17.9,0.0558659217877095,1.8000000000000003,5.708846990572879,0.0012816937
1164.6,1266.9,14044.0,7.1207e-05,62.245,71.267,110.92,40.725,62.073,895.18,0.071146,54.89,0.27194,supercritical,H2O,C7732185,water,647.0,220.64,17.9,0.0558659217877095,1.8000000000000003,5.741932559825962,0.0012746053
1164.6,1274.3,14121.0,7.0816e-05,62.21,71.234,110.85,40.746,62.14,896.31,0.070692,54.966,0.27292,supercritical,H2O,C7732185,water,647.0,220.64,17.9,0.0558659217877095,1.8000000000000003,5.775471356055113,0.0012676063999999998
1164.6,1281.6,14198.0,7.0431e-05,62.176,71.202,110.78,40.768,62.207,897.46,0.07024,55.043,0.27391,supercritical,H2O,C7732185,water,647.0,220.64,17.9,0.0558659217877095,1.8000000000000003,5.808556925308194,0.0012607149
1164.6,1289.0,14276.0,7.005e-05,62.141,71.17,110.71,40.789,62.272,898.6,0.06979,55.119,0.27489,supercritical,H2O,C7732185,water,647.0,220.64,17.9,0.0558659217877095,1.8000000000000003,5.842095721537346,0.0012538949999999999
1164.6,1296.3,14353.0,6.9674e-05,62.106,71.138,110.63,40.81,62.337,899.76,0.069342,55.196,0.27588,supercritical,H2O,C7732185,water,647.0,220.64,17.9,0.0558659217877095,1.8000000000000003,5.875181290790428,0.0012471645999999998
1164.6,1303.7,14429.0,6.9303e-05,62.072,71.107,110.56,40.831,62.401,900.92,0.068896,55.272,0.27686,supercritical,H2O,C7732185,water,647.0,220.64,17.9,0.0558659217877095,1.8000000000000003,5.90872008701958,0.0012405237