Temperature (K),Pressure (bar),Density (mol/m3),Volume (m3/mol),Internal Energy (kJ/mol),Enthalpy (kJ/mol),Entropy (J/mol*K),Cv (J/mol*K),Cp (J/mol*K),Sound Spd. (m/s),Joule-Thomson (K/bar),Viscosity (uPa*s),Therm. Cond. (W/m*K),Phase,substance,substance_id,substance_name,Tc,Pc,rhoc,Vmc,Tr,Pr,Vmr
316.81,604.1,18304.0,5.4632e-05,1.4703,4.7706,97.035,14.565,31.561,566.78,-0.0080488,52.219,0.050027,supercritical,Ar,C7440371,argon,150.86,48.9805,13.41,0.07457121551081282,2.1,12.333479650064822,0.0007326151200000001
316.81,605.73,18332.0,5.455e-05,1.4668,4.771,97.009,14.569,31.556,567.51,-0.0083191,52.303,0.050106,supercritical,Ar,C7440371,argon,150.86,48.9805,13.41,0.07457121551081282,2.1,12.366758199691715,0.0007315155
316.81,607.36,18359.0,5.4468e-05,1.4632,4.7714,96.982,14.572,31.552,568.24,-0.0085878,52.387,0.050186,supercritical,Ar,C7440371,argon,150.86,48.9805,13.41,0.07457121551081282,2.1,12.400036749318607,0.00073041588
316.81,608.99,18387.0,5.4387e-05,1.4597,4.7719,96.955,14.575,31.547,568.97,-0.008855,52.471,0.050265,supercritical,Ar,C7440371,argon,150.86,48.9805,13.41,0.07457121551081282,2.1,12.4333152989455,0.0007293296700000001
316.81,610.62,18414.0,5.4307e-05,1.4562,4.7723,96.929,14.579,31.543,569.69,-0.0091206,52.555,0.050344,supercritical,Ar,C7440371,argon,150.86,48.9805,13.41,0.07457121551081282,2.1,12.46659384857239,0.00072825687
316.81,612.25,18441.0,5.4227e-05,1.4528,4.7728,96.903,14.582,31.538,570.42,-0.0093847,52.639,0.050423,supercritical,Ar,C7440371,argon,150.86,48.9805,13.41,0.07457121551081282,2.1,12.499872398199283,0.0007271840700000001
316.81,613.88,18468.0,5.4147e-05,1.4493,4.7733,96.876,14.586,31.534,571.14,-0.0096473,52.724,0.050501,supercritical,Ar,C7440371,argon,150.86,48.9805,13.41,0.07457121551081282,2.1,12.533150947826176,0.0007261112700000001
316.81,615.51,18495.0,5.4068e-05,1.4458,4.7738,96.85,14.589,31.529,571.87,-0.0099084,52.808,0.05058,supercritical,Ar,C7440371,argon,150.86,48.9805,13.41,0.07457121551081282,2.1,12.566429497453068,0.0007250518800000001
316.81,617.14,18522.0,5.399e-05,1.4424,4.7743,96.824,14.592,31.524,572.59,-0.010168,52.891,0.050659,supercritical,Ar,C7440371,argon,150.86,48.9805,13.41,0.07457121551081282,2.1,12.599708047079961,0.0007240059000000001
316.81,618.77,18549.0,5.3912e-05,1.439,4.7748,96.798,14.596,31.52,573.31,-0.010426,52.975,0.050737,supercritical,Ar,C7440371,argon,150.86,48.9805,13.41,0.07457121551081282,2.1,12.632986596706852,0.0007229599200000001
316.81,620.4,18576.0,5.3834e-05,1.4355,4.7754,96.772,14.599,31.515,574.03,-0.010683,53.059,0.050816,supercritical,Ar,C7440371,argon,150.86,48.9805,13.41,0.07457121551081282,2.1,12.666265146333744,0.0007219139400000001
316.81,622.03,18602.0,5.3757e-05,1.4321,4.7759,96.746,14.603,31.511,574.75,-0.010938,53.143,0.050894,supercritical,Ar,C7440371,argon,150.86,48.9805,13.41,0.07457121551081282,2.1,12.699543695960637,0.0007208813700000001
316.81,623.66,18629.0,5.368e-05,1.4287,4.7765,96.72,14.606,31.506,575.47,-0.011192,53.227,0.050973,supercritical,Ar,C7440371,argon,150.86,48.9805,13.41,0.07457121551081282,2.1,12.73282224558753,0.0007198488000000001
316.81,625.29,18656.0,5.3603e-05,1.4253,4.7771,96.694,14.609,31.501,576.19,-0.011444,53.311,0.051051,supercritical,Ar,C7440371,argon,150.86,48.9805,13.41,0.07457121551081282,2.1,12.766100795214422,0.0007188162300000001
316.81,626.92,18682.0,5.3528e-05,1.4219,4.7777,96.668,14.613,31.496,576.91,-0.011695,53.395,0.051129,supercritical,Ar,C7440371,argon,150.86,48.9805,13.41,0.07457121551081282,2.1,12.799379344841313,0.0007178104800000001
316.81,628.55,18708.0,5.3452e-05,1.4186,4.7783,96.643,14.616,31.492,577.63,-0.011944,53.479,0.051207,supercritical,Ar,C7440371,argon,150.86,48.9805,13.41,0.07457121551081282,2.1,12.832657894468205,0.0007167913200000001
316.81,630.18,18735.0,5.3377e-05,1.4152,4.7789,96.617,14.62,31.487,578.35,-0.012192,53.562,0.051285,supercritical,Ar,C7440371,argon,150.86,48.9805,13.41,0.07457121551081282,2.1,12.865936444095098,0.00071578557
316.81,631.81,18761.0,5.3302e-05,1.4119,4.7795,96.592,14.623,31.482,579.06,-0.012439,53.646,0.051363,supercritical,Ar,C7440371,argon,150.86,48.9805,13.41,0.07457121551081282,2.1,12.89921499372199,0.0007147798200000001
316.81,633.44,18787.0,5.3228e-05,1.4085,4.7802,96.566,14.626,31.478,579.78,-0.012684,53.73,0.051441,supercritical,Ar,C7440371,argon,150.86,48.9805,13.41,0.07457121551081282,2.1,12.932493543348885,0.00071378748
316.81,635.07,18813.0,5.3154e-05,1.4052,4.7808,96.541,14.63,31.473,580.49,-0.012928,53.813,0.051519,supercritical,Ar,C7440371,argon,150.86,48.9805,13.41,0.07457121551081282,2.1,12.965772092975778,0.0007127951400000001
316.81,636.7,18839.0,5.3081e-05,1.4019,4.7815,96.516,14.633,31.468,581.21,-0.013171,53.897,0.051596,supercritical,Ar,C7440371,argon,150.86,48.9805,13.41,0.07457121551081282,2.1,12.99905064260267,0.0007118162100000001
316.81,638.33,18865.0,5.3008e-05,1.3985,4.7822,96.491,14.637,31.463,581.92,-0.013412,53.981,0.051674,supercritical,Ar,C7440371,argon,150.86,48.9805,13.41,0.07457121551081282,2.1,13.032329192229561,0.00071083728
316.81,639.96,18891.0,5.2935e-05,1.3952,4.7829,96.466,14.64,31.459,582.63,-0.013651,54.064,0.051751,supercritical,Ar,C7440371,argon,150.86,48.9805,13.41,0.07457121551081282,2.1,13.065607741856454,0.0007098583500000001
316.81,641.59,18917.0,5.2863e-05,1.392,4.7836,96.441,14.643,31.454,583.34,-0.01389,54.148,0.051829,supercritical,Ar,C7440371,argon,150.86,48.9805,13.41,0.07457121551081282,2.1,13.098886291483346,0.0007088928300000001
316.81,643.22,18942.0,5.2791e-05,1.3887,4.7843,96.416,14.647,31.449,584.05,-0.014127,54.231,0.051906,supercritical,Ar,C7440371,argon,150.86,48.9805,13.41,0.07457121551081282,2.1,13.132164841110239,0.0007079273100000001
316.81,644.85,18968.0,5.272e-05,1.3854,4.785,96.391,14.65,31.444,584.76,-0.014363,54.315,0.051984,supercritical,Ar,C7440371,argon,150.86,48.9805,13.41,0.07457121551081282,2.1,13.165443390737131,0.0007069752000000001
316.81,646.48,18994.0,5.2649e-05,1.3821,4.7858,96.366,14.653,31.44,585.47,-0.014597,54.398,0.052061,supercritical,Ar,C7440371,argon,150.86,48.9805,13.41,0.07457121551081282,2.1,13.198721940364022,0.00070602309
316.81,648.11,19019.0,5.2578e-05,1.3789,4.7865,96.342,14.657,31.435,586.18,-0.01483,54.482,0.052138,supercritical,Ar,C7440371,argon,150.86,48.9805,13.41,0.07457121551081282,2.1,13.232000489990915,0.00070507098
316.81,649.74,19045.0,5.2508e-05,1.3756,4.7873,96.317,14.66,31.43,586.89,-0.015062,54.565,0.052215,supercritical,Ar,C7440371,argon,150.86,48.9805,13.41,0.07457121551081282,2.1,13.265279039617807,0.0007041322800000001
316.81,651.37,19070.0,5.2438e-05,1.3724,4.7881,96.292,14.663,31.425,587.59,-0.015293,54.649,0.052292,supercritical,Ar,C7440371,argon,150.86,48.9805,13.41,0.07457121551081282,2.1,13.2985575892447,0.0007031935800000001
316.81,653.0,19095.0,5.2369e-05,1.3692,4.7889,96.268,14.667,31.42,588.3,-0.015522,54.732,0.052369,supercritical,Ar,C7440371,argon,150.86,48.9805,13.41,0.07457121551081282,2.1,13.331836138871592,0.0007022682900000001
316.81,654.63,19121.0,5.23e-05,1.366,4.7897,96.244,14.67,31.416,589.0,-0.01575,54.816,0.052446,supercritical,Ar,C7440371,argon,150.86,48.9805,13.41,0.07457121551081282,2.1,13.365114688498485,0.000701343
316.81,656.26,19146.0,5.2231e-05,1.3628,4.7905,96.219,14.673,31.411,589.71,-0.015977,54.899,0.052523,supercritical,Ar,C7440371,argon,150.86,48.9805,13.41,0.07457121551081282,2.1,13.398393238125376,0.0007004177100000001
316.81,657.89,19171.0,5.2163e-05,1.3596,4.7913,96.195,14.677,31.406,590.41,-0.016202,54.982,0.052599,supercritical,Ar,C7440371,argon,150.86,48.9805,13.41,0.07457121551081282,2.1,13.431671787752268,0.00069950583
316.81,659.52,19196.0,5.2095e-05,1.3564,4.7921,96.171,14.68,31.401,591.12,-0.016427,55.066,0.052676,supercritical,Ar,C7440371,argon,150.86,48.9805,13.41,0.07457121551081282,2.1,13.464950337379161,0.0006985939500000001
316.81,661.15,19221.0,5.2027e-05,1.3532,4.793,96.147,14.683,31.396,591.82,-0.01665,55.149,0.052753,supercritical,Ar,C7440371,argon,150.86,48.9805,13.41,0.07457121551081282,2.1,13.498228887006054,0.0006976820700000001
316.81,662.78,19246.0,5.196e-05,1.3501,4.7939,96.123,14.687,31.392,592.52,-0.016872,55.232,0.052829,supercritical,Ar,C7440371,argon,150.86,48.9805,13.41,0.07457121551081282,2.1,13.531507436632946,0.0006967836000000001
316.81,664.41,19270.0,5.1893e-05,1.3469,4.7947,96.099,14.69,31.387,593.22,-0.017092,55.316,0.052905,supercritical,Ar,C7440371,argon,150.86,48.9805,13.41,0.07457121551081282,2.1,13.564785986259837,0.0006958851300000001
316.81,666.04,19295.0,5.1827e-05,1.3437,4.7956,96.075,14.693,31.382,593.92,-0.017312,55.399,0.052982,supercritical,Ar,C7440371,argon,150.86,48.9805,13.41,0.07457121551081282,2.1,13.59806453588673,0.00069500007
316.81,667.67,19320.0,5.176e-05,1.3406,4.7965,96.051,14.697,31.377,594.62,-0.01753,55.482,0.053058,supercritical,Ar,C7440371,argon,150.86,48.9805,13.41,0.07457121551081282,2.1,13.631343085513622,0.0006941016
316.81,669.3,19344.0,5.1695e-05,1.3375,4.7974,96.027,14.7,31.372,595.32,-0.017747,55.565,0.053134,supercritical,Ar,C7440371,argon,150.86,48.9805,13.41,0.07457121551081282,2.1,13.664621635140515,0.0006932299500000001
316.81,670.93,19369.0,5.1629e-05,1.3344,4.7983,96.003,14.703,31.367,596.01,-0.017963,55.649,0.05321,supercritical,Ar,C7440371,argon,150.86,48.9805,13.41,0.07457121551081282,2.1,13.697900184767407,0.0006923448900000001
316.81,672.56,19393.0,5.1564e-05,1.3313,4.7992,95.98,14.707,31.363,596.71,-0.018177,55.732,0.053286,supercritical,Ar,C7440371,argon,150.86,48.9805,13.41,0.07457121551081282,2.1,13.731178734394298,0.0006914732400000001
316.81,674.19,19418.0,5.1499e-05,1.3281,4.8002,95.956,14.71,31.358,597.41,-0.018391,55.815,0.053362,supercritical,Ar,C7440371,argon,150.86,48.9805,13.41,0.07457121551081282,2.1,13.764457284021194,0.0006906015900000001
316.81,675.82,19442.0,5.1435e-05,1.3251,4.8011,95.933,14.713,31.353,598.1,-0.018603,55.898,0.053438,supercritical,Ar,C7440371,argon,150.86,48.9805,13.41,0.07457121551081282,2.1,13.797735833648085,0.00068974335
316.81,677.45,19466.0,5.137e-05,1.322,4.8021,95.909,14.717,31.348,598.8,-0.018814,55.981,0.053514,supercritical,Ar,C7440371,argon,150.86,48.9805,13.41,0.07457121551081282,2.1,13.831014383274978,0.0006888717
316.81,679.08,19491.0,5.1307e-05,1.3189,4.803,95.886,14.72,31.343,599.49,-0.019024,56.064,0.05359,supercritical,Ar,C7440371,argon,150.86,48.9805,13.41,0.07457121551081282,2.1,13.86429293290187,0.0006880268700000001
316.81,680.71,19515.0,5.1243e-05,1.3158,4.804,95.863,14.723,31.338,600.18,-0.019233,56.148,0.053666,supercritical,Ar,C7440371,argon,150.86,48.9805,13.41,0.07457121551081282,2.1,13.897571482528763,0.00068716863
316.81,682.34,19539.0,5.118e-05,1.3128,4.805,95.839,14.727,31.333,600.87,-0.019441,56.231,0.053741,supercritical,Ar,C7440371,argon,150.86,48.9805,13.41,0.07457121551081282,2.1,13.930850032155655,0.0006863238000000001
316.81,683.97,19563.0,5.1117e-05,1.3097,4.806,95.816,14.73,31.329,601.57,-0.019648,56.314,0.053817,supercritical,Ar,C7440371,argon,150.86,48.9805,13.41,0.07457121551081282,2.1,13.964128581782546,0.00068547897
316.81,685.6,19587.0,5.1055e-05,1.3067,4.807,95.793,14.733,31.324,602.26,-0.019853,56.397,0.053893,supercritical,Ar,C7440371,argon,150.86,48.9805,13.41,0.07457121551081282,2.1,13.997407131409439,0.00068464755
316.81,687.23,19611.0,5.0993e-05,1.3037,4.808,95.77,14.736,31.319,602.95,-0.020058,56.48,0.053968,supercritical,Ar,C7440371,argon,150.86,48.9805,13.41,0.07457121551081282,2.1,14.030685681036331,0.0006838161300000001
316.81,688.86,19635.0,5.0931e-05,1.3006,4.8091,95.747,14.74,31.314,603.63,-0.020261,56.563,0.054043,supercritical,Ar,C7440371,argon,150.86,48.9805,13.41,0.07457121551081282,2.1,14.063964230663224,0.0006829847100000001
316.81,690.49,19658.0,5.0869e-05,1.2976,4.8101,95.724,14.743,31.309,604.32,-0.020463,56.646,0.054119,supercritical,Ar,C7440371,argon,150.86,48.9805,13.41,0.07457121551081282,2.1,14.097242780290117,0.00068215329
316.81,692.12,19682.0,5.0808e-05,1.2946,4.8111,95.701,14.746,31.304,605.01,-0.020664,56.729,0.054194,supercritical,Ar,C7440371,argon,150.86,48.9805,13.41,0.07457121551081282,2.1,14.130521329917007,0.00068133528
316.81,693.75,19706.0,5.0747e-05,1.2916,4.8122,95.679,14.75,31.3,605.7,-0.020864,56.812,0.054269,supercritical,Ar,C7440371,argon,150.86,48.9805,13.41,0.07457121551081282,2.1,14.1637998795439,0.0006805172700000001
316.81,695.38,19729.0,5.0686e-05,1.2886,4.8133,95.656,14.753,31.295,606.38,-0.021063,56.895,0.054344,supercritical,Ar,C7440371,argon,150.86,48.9805,13.41,0.07457121551081282,2.1,14.197078429170793,0.0006796992600000001
316.81,697.01,19753.0,5.0626e-05,1.2857,4.8143,95.633,14.756,31.29,607.07,-0.021261,56.978,0.054419,supercritical,Ar,C7440371,argon,150.86,48.9805,13.41,0.07457121551081282,2.1,14.230356978797685,0.0006788946600000001
316.81,698.64,19776.0,5.0566e-05,1.2827,4.8154,95.611,14.759,31.285,607.75,-0.021458,57.061,0.054494,supercritical,Ar,C7440371,argon,150.86,48.9805,13.41,0.07457121551081282,2.1,14.263635528424578,0.00067809006
316.81,700.27,19800.0,5.0506e-05,1.2797,4.8165,95.588,14.763,31.28,608.44,-0.021654,57.143,0.054569,supercritical,Ar,C7440371,argon,150.86,48.9805,13.41,0.07457121551081282,2.1,14.296914078051469,0.00067728546
316.81,701.9,19823.0,5.0447e-05,1.2768,4.8176,95.566,14.766,31.275,609.12,-0.021849,57.226,0.054644,supercritical,Ar,C7440371,argon,150.86,48.9805,13.41,0.07457121551081282,2.1,14.330192627678361,0.00067649427
316.81,703.53,19846.0,5.0388e-05,1.2738,4.8188,95.543,14.769,31.271,609.8,-0.022043,57.309,0.054719,supercritical,Ar,C7440371,argon,150.86,48.9805,13.41,0.07457121551081282,2.1,14.363471177305254,0.00067570308
316.81,705.16,19869.0,5.0329e-05,1.2709,4.8199,95.521,14.772,31.266,610.48,-0.022236,57.392,0.054794,supercritical,Ar,C7440371,argon,150.86,48.9805,13.41,0.07457121551081282,2.1,14.396749726932146,0.0006749118900000001
316.81,706.79,19892.0,5.027e-05,1.268,4.821,95.499,14.776,31.261,611.16,-0.022427,57.475,0.054869,supercritical,Ar,C7440371,argon,150.86,48.9805,13.41,0.07457121551081282,2.1,14.430028276559039,0.0006741207000000001
316.81,708.42,19916.0,5.0212e-05,1.2651,4.8222,95.476,14.779,31.256,611.84,-0.022618,57.558,0.054943,supercritical,Ar,C7440371,argon,150.86,48.9805,13.41,0.07457121551081282,2.1,14.46330682618593,0.0006733429200000001
316.81,710.05,19939.0,5.0154e-05,1.2621,4.8233,95.454,14.782,31.251,612.52,-0.022808,57.64,0.055018,supercritical,Ar,C7440371,argon,150.86,48.9805,13.41,0.07457121551081282,2.1,14.496585375812822,0.0006725651400000001
316.81,711.68,19962.0,5.0096e-05,1.2592,4.8245,95.432,14.785,31.246,613.2,-0.022997,57.723,0.055092,supercritical,Ar,C7440371,argon,150.86,48.9805,13.41,0.07457121551081282,2.1,14.529863925439715,0.0006717873600000002
316.81,713.31,19984.0,5.0039e-05,1.2564,4.8257,95.41,14.789,31.242,613.88,-0.023184,57.806,0.055167,supercritical,Ar,C7440371,argon,150.86,48.9805,13.41,0.07457121551081282,2.1,14.563142475066607,0.00067102299
316.81,714.94,20007.0,4.9982e-05,1.2535,4.8269,95.388,14.792,31.237,614.55,-0.023371,57.889,0.055241,supercritical,Ar,C7440371,argon,150.86,48.9805,13.41,0.07457121551081282,2.1,14.596421024693502,0.00067025862
316.81,716.57,20030.0,4.9925e-05,1.2506,4.8281,95.366,14.795,31.232,615.23,-0.023557,57.971,0.055315,supercritical,Ar,C7440371,argon,150.86,48.9805,13.41,0.07457121551081282,2.1,14.629699574320394,0.0006694942500000001
316.81,718.2,20053.0,4.9868e-05,1.2477,4.8293,95.344,14.798,31.227,615.9,-0.023742,58.054,0.05539,supercritical,Ar,C7440371,argon,150.86,48.9805,13.41,0.07457121551081282,2.1,14.662978123947287,0.00066872988
316.81,719.83,20075.0,4.9812e-05,1.2449,4.8305,95.322,14.802,31.222,616.58,-0.023926,58.137,0.055464,supercritical,Ar,C7440371,argon,150.86,48.9805,13.41,0.07457121551081282,2.1,14.696256673574178,0.0006679789200000001
316.81,721.46,20098.0,4.9756e-05,1.242,4.8317,95.301,14.805,31.218,617.25,-0.024109,58.219,0.055538,supercritical,Ar,C7440371,argon,150.86,48.9805,13.41,0.07457121551081282,2.1,14.72953522320107,0.0006672279600000001
316.81,723.09,20121.0,4.97e-05,1.2392,4.8329,95.279,14.808,31.213,617.93,-0.024291,58.302,0.055612,supercritical,Ar,C7440371,argon,150.86,48.9805,13.41,0.07457121551081282,2.1,14.762813772827963,0.0006664770000000001
316.81,724.72,20143.0,4.9645e-05,1.2363,4.8342,95.257,14.811,31.208,618.6,-0.024472,58.385,0.055686,supercritical,Ar,C7440371,argon,150.86,48.9805,13.41,0.07457121551081282,2.1,14.796092322454856,0.0006657394500000001
316.81,726.35,20166.0,4.9589e-05,1.2335,4.8354,95.236,14.815,31.203,619.27,-0.024652,58.467,0.05576,supercritical,Ar,C7440371,argon,150.86,48.9805,13.41,0.07457121551081282,2.1,14.829370872081748,0.0006649884900000001
316.81,727.98,20188.0,4.9535e-05,1.2307,4.8367,95.214,14.818,31.198,619.94,-0.024831,58.55,0.055834,supercritical,Ar,C7440371,argon,150.86,48.9805,13.41,0.07457121551081282,2.1,14.862649421708639,0.00066426435
316.81,729.61,20210.0,4.948e-05,1.2278,4.8379,95.193,14.821,31.194,620.61,-0.025009,58.633,0.055908,supercritical,Ar,C7440371,argon,150.86,48.9805,13.41,0.07457121551081282,2.1,14.895927971335531,0.0006635268000000001
316.81,731.24,20233.0,4.9425e-05,1.225,4.8392,95.171,14.824,31.189,621.28,-0.025187,58.715,0.055982,supercritical,Ar,C7440371,argon,150.86,48.9805,13.41,0.07457121551081282,2.1,14.929206520962424,0.0006627892500000001
316.81,732.87,20255.0,4.9371e-05,1.2222,4.8405,95.15,14.827,31.184,621.95,-0.025363,58.798,0.056055,supercritical,Ar,C7440371,argon,150.86,48.9805,13.41,0.07457121551081282,2.1,14.962485070589317,0.0006620651100000001
316.81,734.5,20277.0,4.9317e-05,1.2195,4.8418,95.129,14.831,31.179,622.62,-0.025538,58.88,0.056129,supercritical,Ar,C7440371,argon,150.86,48.9805,13.41,0.07457121551081282,2.1,14.99576362021621,0.0006613409700000001
316.81,736.13,20299.0,4.9263e-05,1.2167,4.8431,95.107,14.834,31.175,623.28,-0.025713,58.963,0.056203,supercritical,Ar,C7440371,argon,150.86,48.9805,13.41,0.07457121551081282,2.1,15.029042169843102,0.0006606168300000001
316.81,737.76,20321.0,4.921e-05,1.2139,4.8444,95.086,14.837,31.17,623.95,-0.025887,59.045,0.056276,supercritical,Ar,C7440371,argon,150.86,48.9805,13.41,0.07457121551081282,2.1,15.062320719469993,0.0006599061000000001
316.81,739.39,20343.0,4.9157e-05,1.2111,4.8457,95.065,14.84,31.165,624.61,-0.02606,59.128,0.05635,supercritical,Ar,C7440371,argon,150.86,48.9805,13.41,0.07457121551081282,2.1,15.095599269096885,0.00065919537
316.81,741.02,20365.0,4.9104e-05,1.2084,4.8471,95.044,14.844,31.16,625.28,-0.026231,59.21,0.056423,supercritical,Ar,C7440371,argon,150.86,48.9805,13.41,0.07457121551081282,2.1,15.128877818723778,0.0006584846400000001
316.81,742.65,20387.0,4.9051e-05,1.2056,4.8484,95.023,14.847,31.156,625.94,-0.026403,59.293,0.056497,supercritical,Ar,C7440371,argon,150.86,48.9805,13.41,0.07457121551081282,2.1,15.16215636835067,0.0006577739100000001
316.81,744.28,20409.0,4.8999e-05,1.2029,4.8497,95.002,14.85,31.151,626.61,-0.026573,59.375,0.05657,supercritical,Ar,C7440371,argon,150.86,48.9805,13.41,0.07457121551081282,2.1,15.195434917977563,0.0006570765900000001
316.81,745.91,20430.0,4.8947e-05,1.2001,4.8511,94.981,14.853,31.146,627.27,-0.026742,59.458,0.056643,supercritical,Ar,C7440371,argon,150.86,48.9805,13.41,0.07457121551081282,2.1,15.228713467604454,0.00065637927
316.81,747.54,20452.0,4.8895e-05,1.1974,4.8525,94.96,14.856,31.141,627.93,-0.026911,59.54,0.056717,supercritical,Ar,C7440371,argon,150.86,48.9805,13.41,0.07457121551081282,2.1,15.261992017231346,0.0006556819500000001
316.81,749.17,20474.0,4.8843e-05,1.1947,4.8538,94.939,14.859,31.137,628.59,-0.027078,59.622,0.05679,supercritical,Ar,C7440371,argon,150.86,48.9805,13.41,0.07457121551081282,2.1,15.295270566858239,0.00065498463
316.81,750.8,20495.0,4.8791e-05,1.192,4.8552,94.919,14.863,31.132,629.25,-0.027245,59.705,0.056863,supercritical,Ar,C7440371,argon,150.86,48.9805,13.41,0.07457121551081282,2.1,15.328549116485132,0.0006542873100000001