Temperature (K),Pressure (bar),Density (mol/m3),Volume (m3/mol),Internal Energy (kJ/mol),Enthalpy (kJ/mol),Entropy (J/mol*K),Cv (J/mol*K),Cp (J/mol*K),Sound Spd. (m/s),Joule-Thomson (K/bar),Viscosity (uPa*s),Therm. Cond. (W/m*K),Phase,substance,substance_id,substance_name,Tc,Pc,rhoc,Vmc,Tr,Pr,Vmr
181.03,300.92,24337.0,4.109e-05,-1.4227,-0.18619,82.363,16.344,44.184,544.13,0.0068165,70.185,0.062893,supercritical,Ar,C7440371,argon,150.86,48.9805,13.41,0.07457121551081282,1.2,6.143669419462848,0.0005510169000000001
181.03,302.55,24374.0,4.1028e-05,-1.4279,-0.18666,82.324,16.348,44.1,545.58,0.0062883,70.413,0.063052,supercritical,Ar,C7440371,argon,150.86,48.9805,13.41,0.07457121551081282,1.2,6.17694796908974,0.00055018548
181.03,304.18,24411.0,4.0966e-05,-1.4332,-0.18709,82.285,16.352,44.017,547.03,0.0057669,70.64,0.06321,supercritical,Ar,C7440371,argon,150.86,48.9805,13.41,0.07457121551081282,1.2,6.210226518716633,0.00054935406
181.03,305.81,24447.0,4.0904e-05,-1.4384,-0.18748,82.246,16.356,43.935,548.47,0.0052523,70.866,0.063368,supercritical,Ar,C7440371,argon,150.86,48.9805,13.41,0.07457121551081282,1.2,6.2435050683435245,0.00054852264
181.03,307.44,24484.0,4.0844e-05,-1.4435,-0.18784,82.207,16.36,43.854,549.9,0.0047444,71.091,0.063525,supercritical,Ar,C7440371,argon,150.86,48.9805,13.41,0.07457121551081282,1.2,6.276783617970417,0.00054771804
181.03,309.07,24520.0,4.0784e-05,-1.4487,-0.18816,82.168,16.364,43.774,551.32,0.0042429,71.316,0.063682,supercritical,Ar,C7440371,argon,150.86,48.9805,13.41,0.07457121551081282,1.2,6.310062167597309,0.0005469134400000001
181.03,310.7,24555.0,4.0724e-05,-1.4538,-0.18845,82.13,16.368,43.696,552.74,0.0037479,71.539,0.063838,supercritical,Ar,C7440371,argon,150.86,48.9805,13.41,0.07457121551081282,1.2,6.343340717224201,0.00054610884
181.03,312.33,24591.0,4.0665e-05,-1.4588,-0.1887,82.092,16.373,43.618,554.15,0.0032591,71.762,0.063993,supercritical,Ar,C7440371,argon,150.86,48.9805,13.41,0.07457121551081282,1.2,6.376619266851094,0.00054531765
181.03,313.96,24626.0,4.0607e-05,-1.4638,-0.18891,82.054,16.377,43.541,555.55,0.0027764,71.984,0.064148,supercritical,Ar,C7440371,argon,150.86,48.9805,13.41,0.07457121551081282,1.2,6.409897816477986,0.00054453987
181.03,315.59,24661.0,4.055e-05,-1.4688,-0.18909,82.017,16.381,43.465,556.95,0.0022997,72.205,0.064302,supercritical,Ar,C7440371,argon,150.86,48.9805,13.41,0.07457121551081282,1.2,6.443176366104878,0.0005437755000000001
181.03,317.22,24696.0,4.0492e-05,-1.4737,-0.18924,81.979,16.385,43.391,558.34,0.001829,72.426,0.064456,supercritical,Ar,C7440371,argon,150.86,48.9805,13.41,0.07457121551081282,1.2,6.476454915731772,0.00054299772
181.03,318.85,24731.0,4.0436e-05,-1.4786,-0.18935,81.942,16.39,43.317,559.72,0.001364,72.645,0.064609,supercritical,Ar,C7440371,argon,150.86,48.9805,13.41,0.07457121551081282,1.2,6.509733465358663,0.00054224676
181.03,320.48,24765.0,4.038e-05,-1.4835,-0.18943,81.905,16.394,43.244,561.09,0.0009047,72.864,0.064762,supercritical,Ar,C7440371,argon,150.86,48.9805,13.41,0.07457121551081282,1.2,6.543012014985556,0.0005414958000000001
181.03,322.11,24799.0,4.0324e-05,-1.4884,-0.18948,81.869,16.398,43.172,562.46,0.00045099,73.082,0.064914,supercritical,Ar,C7440371,argon,150.86,48.9805,13.41,0.07457121551081282,1.2,6.5762905646124485,0.0005407448400000001
181.03,323.74,24833.0,4.0269e-05,-1.4932,-0.18949,81.833,16.403,43.101,563.82,2.7607e-06,73.299,0.065066,supercritical,Ar,C7440371,argon,150.86,48.9805,13.41,0.07457121551081282,1.2,6.60956911423934,0.00054000729
181.03,325.37,24866.0,4.0215e-05,-1.498,-0.18948,81.796,16.407,43.03,565.18,-0.00044009,73.515,0.065217,supercritical,Ar,C7440371,argon,150.86,48.9805,13.41,0.07457121551081282,1.2,6.642847663866233,0.00053928315
181.03,327.0,24900.0,4.0161e-05,-1.5027,-0.18943,81.76,16.411,42.961,566.52,-0.00087766,73.731,0.065367,supercritical,Ar,C7440371,argon,150.86,48.9805,13.41,0.07457121551081282,1.2,6.6761262134931245,0.00053855901
181.03,328.63,24933.0,4.0108e-05,-1.5074,-0.18936,81.725,16.416,42.892,567.87,-0.00131,73.946,0.065518,supercritical,Ar,C7440371,argon,150.86,48.9805,13.41,0.07457121551081282,1.2,6.709404763120017,0.0005378482800000001
181.03,330.26,24966.0,4.0055e-05,-1.5121,-0.18925,81.689,16.42,42.824,569.2,-0.0017373,74.16,0.065667,supercritical,Ar,C7440371,argon,150.86,48.9805,13.41,0.07457121551081282,1.2,6.74268331274691,0.0005371375500000001
181.03,331.89,24999.0,4.0002e-05,-1.5167,-0.18911,81.654,16.425,42.757,570.53,-0.0021596,74.374,0.065817,supercritical,Ar,C7440371,argon,150.86,48.9805,13.41,0.07457121551081282,1.2,6.775961862373801,0.0005364268200000001
181.03,333.52,25031.0,3.995e-05,-1.5214,-0.18895,81.619,16.429,42.691,571.85,-0.002577,74.586,0.065965,supercritical,Ar,C7440371,argon,150.86,48.9805,13.41,0.07457121551081282,1.2,6.809240412000694,0.0005357295
181.03,335.15,25063.0,3.9899e-05,-1.526,-0.18875,81.584,16.434,42.626,573.17,-0.0029896,74.799,0.066114,supercritical,Ar,C7440371,argon,150.86,48.9805,13.41,0.07457121551081282,1.2,6.8425189616275865,0.0005350455900000001
181.03,336.78,25096.0,3.9848e-05,-1.5305,-0.18853,81.549,16.438,42.561,574.48,-0.0033974,75.01,0.066262,supercritical,Ar,C7440371,argon,150.86,48.9805,13.41,0.07457121551081282,1.2,6.875797511254478,0.0005343616800000001
181.03,338.41,25127.0,3.9797e-05,-1.5351,-0.18828,81.515,16.443,42.497,575.78,-0.0038005,75.22,0.066409,supercritical,Ar,C7440371,argon,150.86,48.9805,13.41,0.07457121551081282,1.2,6.909076060881372,0.00053367777
181.03,340.04,25159.0,3.9747e-05,-1.5396,-0.18801,81.481,16.447,42.434,577.08,-0.0041991,75.43,0.066556,supercritical,Ar,C7440371,argon,150.86,48.9805,13.41,0.07457121551081282,1.2,6.942354610508264,0.0005330072700000001
181.03,341.67,25191.0,3.9697e-05,-1.544,-0.1877,81.446,16.452,42.372,578.37,-0.0045931,75.64,0.066703,supercritical,Ar,C7440371,argon,150.86,48.9805,13.41,0.07457121551081282,1.2,6.975633160135156,0.0005323367700000001
181.03,343.3,25222.0,3.9648e-05,-1.5485,-0.18737,81.413,16.456,42.31,579.66,-0.0049828,75.848,0.066849,supercritical,Ar,C7440371,argon,150.86,48.9805,13.41,0.07457121551081282,1.2,7.008911709762049,0.0005316796800000001
181.03,344.93,25253.0,3.9599e-05,-1.5529,-0.18702,81.379,16.461,42.249,580.94,-0.0053681,76.056,0.066994,supercritical,Ar,C7440371,argon,150.86,48.9805,13.41,0.07457121551081282,1.2,7.042190259388941,0.00053102259
181.03,346.56,25284.0,3.9551e-05,-1.5573,-0.18663,81.345,16.465,42.188,582.22,-0.0057491,76.264,0.06714,supercritical,Ar,C7440371,argon,150.86,48.9805,13.41,0.07457121551081282,1.2,7.075468809015833,0.00053037891
181.03,348.19,25315.0,3.9503e-05,-1.5617,-0.18622,81.312,16.47,42.129,583.49,-0.0061259,76.47,0.067284,supercritical,Ar,C7440371,argon,150.86,48.9805,13.41,0.07457121551081282,1.2,7.1087473586427254,0.00052973523
181.03,349.82,25345.0,3.9455e-05,-1.566,-0.18579,81.279,16.475,42.07,584.75,-0.0064985,76.676,0.067429,supercritical,Ar,C7440371,argon,150.86,48.9805,13.41,0.07457121551081282,1.2,7.142025908269617,0.0005290915500000001
181.03,351.45,25376.0,3.9408e-05,-1.5703,-0.18533,81.246,16.479,42.011,586.01,-0.0068671,76.881,0.067573,supercritical,Ar,C7440371,argon,150.86,48.9805,13.41,0.07457121551081282,1.2,7.17530445789651,0.00052846128
181.03,353.08,25406.0,3.9361e-05,-1.5746,-0.18485,81.213,16.484,41.954,587.26,-0.0072317,77.086,0.067716,supercritical,Ar,C7440371,argon,150.86,48.9805,13.41,0.07457121551081282,1.2,7.208583007523402,0.00052783101
181.03,354.71,25436.0,3.9314e-05,-1.5789,-0.18434,81.18,16.489,41.897,588.51,-0.0075923,77.29,0.067859,supercritical,Ar,C7440371,argon,150.86,48.9805,13.41,0.07457121551081282,1.2,7.241861557150294,0.00052720074
181.03,356.34,25466.0,3.9268e-05,-1.5831,-0.18381,81.148,16.493,41.84,589.75,-0.0079491,77.494,0.068002,supercritical,Ar,C7440371,argon,150.86,48.9805,13.41,0.07457121551081282,1.2,7.275140106777187,0.00052658388
181.03,357.97,25495.0,3.9223e-05,-1.5873,-0.18326,81.116,16.498,41.784,590.99,-0.0083021,77.697,0.068145,supercritical,Ar,C7440371,argon,150.86,48.9805,13.41,0.07457121551081282,1.2,7.30841865640408,0.00052598043
181.03,359.6,25525.0,3.9177e-05,-1.5915,-0.18268,81.084,16.503,41.729,592.22,-0.0086513,77.899,0.068287,supercritical,Ar,C7440371,argon,150.86,48.9805,13.41,0.07457121551081282,1.2,7.341697206030972,0.00052536357
181.03,361.23,25554.0,3.9132e-05,-1.5957,-0.18208,81.052,16.507,41.674,593.45,-0.0089968,78.1,0.068428,supercritical,Ar,C7440371,argon,150.86,48.9805,13.41,0.07457121551081282,1.2,7.374975755657864,0.00052476012
181.03,362.86,25584.0,3.9088e-05,-1.5998,-0.18146,81.02,16.512,41.62,594.67,-0.0093387,78.301,0.068569,supercritical,Ar,C7440371,argon,150.86,48.9805,13.41,0.07457121551081282,1.2,7.408254305284757,0.0005241700800000001
181.03,364.49,25613.0,3.9043e-05,-1.6039,-0.18082,80.988,16.517,41.567,595.88,-0.0096771,78.502,0.06871,supercritical,Ar,C7440371,argon,150.86,48.9805,13.41,0.07457121551081282,1.2,7.441532854911649,0.00052356663
181.03,366.12,25641.0,3.9e-05,-1.608,-0.18015,80.957,16.522,41.514,597.1,-0.010012,78.702,0.068851,supercritical,Ar,C7440371,argon,150.86,48.9805,13.41,0.07457121551081282,1.2,7.474811404538541,0.0005229900000000001
181.03,367.75,25670.0,3.8956e-05,-1.6121,-0.17946,80.926,16.526,41.461,598.3,-0.010343,78.901,0.068991,supercritical,Ar,C7440371,argon,150.86,48.9805,13.41,0.07457121551081282,1.2,7.508089954165433,0.0005223999600000001
181.03,369.38,25699.0,3.8913e-05,-1.6161,-0.17875,80.894,16.531,41.409,599.5,-0.010671,79.1,0.069131,supercritical,Ar,C7440371,argon,150.86,48.9805,13.41,0.07457121551081282,1.2,7.5413685037923255,0.00052182333
181.03,371.01,25727.0,3.887e-05,-1.6201,-0.17802,80.863,16.536,41.358,600.7,-0.010996,79.298,0.06927,supercritical,Ar,C7440371,argon,150.86,48.9805,13.41,0.07457121551081282,1.2,7.574647053419218,0.0005212467000000001
181.03,372.64,25755.0,3.8827e-05,-1.6241,-0.17727,80.833,16.54,41.307,601.89,-0.011317,79.496,0.069409,supercritical,Ar,C7440371,argon,150.86,48.9805,13.41,0.07457121551081282,1.2,7.60792560304611,0.00052067007
181.03,374.27,25783.0,3.8785e-05,-1.6281,-0.1765,80.802,16.545,41.257,603.08,-0.011635,79.693,0.069548,supercritical,Ar,C7440371,argon,150.86,48.9805,13.41,0.07457121551081282,1.2,7.641204152673002,0.0005201068500000001
181.03,375.9,25811.0,3.8743e-05,-1.6321,-0.17571,80.771,16.55,41.207,604.26,-0.01195,79.889,0.069686,supercritical,Ar,C7440371,argon,150.86,48.9805,13.41,0.07457121551081282,1.2,7.674482702299895,0.00051954363
181.03,377.53,25839.0,3.8701e-05,-1.636,-0.17489,80.741,16.555,41.158,605.44,-0.012261,80.085,0.069824,supercritical,Ar,C7440371,argon,150.86,48.9805,13.41,0.07457121551081282,1.2,7.707761251926787,0.00051898041
181.03,379.16,25866.0,3.866e-05,-1.6399,-0.17406,80.711,16.56,41.109,606.61,-0.01257,80.28,0.069962,supercritical,Ar,C7440371,argon,150.86,48.9805,13.41,0.07457121551081282,1.2,7.74103980155368,0.0005184306
181.03,380.79,25894.0,3.8619e-05,-1.6438,-0.17321,80.681,16.564,41.061,607.78,-0.012875,80.475,0.070099,supercritical,Ar,C7440371,argon,150.86,48.9805,13.41,0.07457121551081282,1.2,7.774318351180573,0.0005178807900000001
181.03,382.42,25921.0,3.8579e-05,-1.6477,-0.17234,80.651,16.569,41.013,608.94,-0.013178,80.67,0.070236,supercritical,Ar,C7440371,argon,150.86,48.9805,13.41,0.07457121551081282,1.2,7.807596900807464,0.00051734439
181.03,384.05,25948.0,3.8538e-05,-1.6515,-0.17145,80.621,16.574,40.966,610.1,-0.013477,80.864,0.070372,supercritical,Ar,C7440371,argon,150.86,48.9805,13.41,0.07457121551081282,1.2,7.840875450434357,0.0005167945800000001
181.03,385.68,25975.0,3.8498e-05,-1.6553,-0.17054,80.591,16.579,40.919,611.25,-0.013774,81.057,0.070509,supercritical,Ar,C7440371,argon,150.86,48.9805,13.41,0.07457121551081282,1.2,7.8741540000612495,0.0005162581800000001
181.03,387.31,26002.0,3.8458e-05,-1.6591,-0.16961,80.562,16.584,40.872,612.4,-0.014068,81.25,0.070645,supercritical,Ar,C7440371,argon,150.86,48.9805,13.41,0.07457121551081282,1.2,7.907432549688141,0.00051572178
181.03,388.94,26029.0,3.8419e-05,-1.6629,-0.16866,80.532,16.588,40.826,613.55,-0.014358,81.442,0.07078,supercritical,Ar,C7440371,argon,150.86,48.9805,13.41,0.07457121551081282,1.2,7.940711099315034,0.00051519879
181.03,390.57,26056.0,3.8379e-05,-1.6667,-0.1677,80.503,16.593,40.781,614.69,-0.014646,81.634,0.070916,supercritical,Ar,C7440371,argon,150.86,48.9805,13.41,0.07457121551081282,1.2,7.9739896489419255,0.00051466239
181.03,392.2,26082.0,3.8341e-05,-1.6704,-0.16672,80.474,16.598,40.736,615.83,-0.014932,81.825,0.071051,supercritical,Ar,C7440371,argon,150.86,48.9805,13.41,0.07457121551081282,1.2,8.007268198568818,0.00051415281
181.03,393.83,26108.0,3.8302e-05,-1.6742,-0.16572,80.445,16.603,40.691,616.96,-0.015214,82.016,0.071185,supercritical,Ar,C7440371,argon,150.86,48.9805,13.41,0.07457121551081282,1.2,8.04054674819571,0.00051362982
181.03,395.46,26135.0,3.8263e-05,-1.6779,-0.1647,80.416,16.608,40.647,618.09,-0.015494,82.206,0.071319,supercritical,Ar,C7440371,argon,150.86,48.9805,13.41,0.07457121551081282,1.2,8.073825297822603,0.0005131068300000001
181.03,397.09,26161.0,3.8225e-05,-1.6816,-0.16366,80.388,16.613,40.603,619.21,-0.015771,82.396,0.071454,supercritical,Ar,C7440371,argon,150.86,48.9805,13.41,0.07457121551081282,1.2,8.107103847449494,0.00051259725
181.03,398.72,26187.0,3.8187e-05,-1.6852,-0.16261,80.359,16.617,40.56,620.33,-0.016046,82.585,0.071587,supercritical,Ar,C7440371,argon,150.86,48.9805,13.41,0.07457121551081282,1.2,8.140382397076388,0.0005120876700000001
181.03,400.35,26212.0,3.815e-05,-1.6889,-0.16154,80.33,16.622,40.517,621.45,-0.016318,82.774,0.071721,supercritical,Ar,C7440371,argon,150.86,48.9805,13.41,0.07457121551081282,1.2,8.173660946703281,0.0005115915
181.03,401.98,26238.0,3.8112e-05,-1.6925,-0.16045,80.302,16.627,40.474,622.56,-0.016587,82.963,0.071854,supercritical,Ar,C7440371,argon,150.86,48.9805,13.41,0.07457121551081282,1.2,8.206939496330172,0.00051108192
181.03,403.61,26264.0,3.8075e-05,-1.6961,-0.15935,80.274,16.632,40.432,623.67,-0.016854,83.151,0.071987,supercritical,Ar,C7440371,argon,150.86,48.9805,13.41,0.07457121551081282,1.2,8.240218045957064,0.00051058575
181.03,405.24,26289.0,3.8039e-05,-1.6997,-0.15823,80.246,16.637,40.39,624.77,-0.017119,83.338,0.072119,supercritical,Ar,C7440371,argon,150.86,48.9805,13.41,0.07457121551081282,1.2,8.273496595583957,0.0005101029900000001
181.03,406.87,26314.0,3.8002e-05,-1.7033,-0.1571,80.218,16.642,40.349,625.87,-0.017381,83.525,0.072251,supercritical,Ar,C7440371,argon,150.86,48.9805,13.41,0.07457121551081282,1.2,8.30677514521085,0.0005096068200000001
181.03,408.5,26340.0,3.7966e-05,-1.7068,-0.15595,80.19,16.647,40.308,626.97,-0.01764,83.712,0.072383,supercritical,Ar,C7440371,argon,150.86,48.9805,13.41,0.07457121551081282,1.2,8.340053694837742,0.0005091240600000001
181.03,410.13,26365.0,3.7929e-05,-1.7104,-0.15478,80.162,16.651,40.267,628.06,-0.017898,83.898,0.072515,supercritical,Ar,C7440371,argon,150.86,48.9805,13.41,0.07457121551081282,1.2,8.373332244464635,0.0005086278900000001
181.03,411.76,26390.0,3.7894e-05,-1.7139,-0.1536,80.135,16.656,40.227,629.15,-0.018153,84.083,0.072646,supercritical,Ar,C7440371,argon,150.86,48.9805,13.41,0.07457121551081282,1.2,8.406610794091526,0.0005081585400000001
181.03,413.39,26415.0,3.7858e-05,-1.7174,-0.1524,80.107,16.661,40.187,630.23,-0.018405,84.269,0.072777,supercritical,Ar,C7440371,argon,150.86,48.9805,13.41,0.07457121551081282,1.2,8.439889343718418,0.0005076757800000001
181.03,415.02,26439.0,3.7823e-05,-1.7209,-0.15119,80.08,16.666,40.148,631.31,-0.018655,84.453,0.072908,supercritical,Ar,C7440371,argon,150.86,48.9805,13.41,0.07457121551081282,1.2,8.47316789334531,0.0005072064300000001
181.03,416.65,26464.0,3.7787e-05,-1.7244,-0.14996,80.053,16.671,40.108,632.39,-0.018904,84.638,0.073038,supercritical,Ar,C7440371,argon,150.86,48.9805,13.41,0.07457121551081282,1.2,8.506446442972203,0.0005067236700000001
181.03,418.28,26488.0,3.7752e-05,-1.7278,-0.14871,80.025,16.676,40.069,633.46,-0.01915,84.822,0.073169,supercritical,Ar,C7440371,argon,150.86,48.9805,13.41,0.07457121551081282,1.2,8.539724992599096,0.0005062543200000001
181.03,419.91,26513.0,3.7718e-05,-1.7313,-0.14746,79.998,16.681,40.031,634.53,-0.019393,85.005,0.073298,supercritical,Ar,C7440371,argon,150.86,48.9805,13.41,0.07457121551081282,1.2,8.573003542225988,0.00050579838
181.03,421.54,26537.0,3.7683e-05,-1.7347,-0.14618,79.972,16.686,39.993,635.59,-0.019635,85.188,0.073428,supercritical,Ar,C7440371,argon,150.86,48.9805,13.41,0.07457121551081282,1.2,8.606282091852881,0.00050532903
181.03,423.17,26561.0,3.7649e-05,-1.7381,-0.1449,79.945,16.691,39.955,636.66,-0.019874,85.371,0.073557,supercritical,Ar,C7440371,argon,150.86,48.9805,13.41,0.07457121551081282,1.2,8.639560641479774,0.00050487309
181.03,424.8,26585.0,3.7615e-05,-1.7415,-0.1436,79.918,16.695,39.918,637.71,-0.020112,85.553,0.073687,supercritical,Ar,C7440371,argon,150.86,48.9805,13.41,0.07457121551081282,1.2,8.672839191106664,0.00050441715
181.03,426.43,26609.0,3.7581e-05,-1.7449,-0.14228,79.891,16.7,39.88,638.77,-0.020347,85.735,0.073815,supercritical,Ar,C7440371,argon,150.86,48.9805,13.41,0.07457121551081282,1.2,8.706117740733557,0.0005039612100000001
181.03,428.06,26633.0,3.7547e-05,-1.7482,-0.14095,79.865,16.705,39.844,639.82,-0.02058,85.917,0.073944,supercritical,Ar,C7440371,argon,150.86,48.9805,13.41,0.07457121551081282,1.2,8.73939629036045,0.00050350527
181.03,429.69,26657.0,3.7514e-05,-1.7515,-0.13961,79.839,16.71,39.807,640.87,-0.020811,86.098,0.074072,supercritical,Ar,C7440371,argon,150.86,48.9805,13.41,0.07457121551081282,1.2,8.772674839987342,0.00050306274
181.03,431.32,26680.0,3.7481e-05,-1.7549,-0.13825,79.812,16.715,39.771,641.91,-0.02104,86.279,0.0742,supercritical,Ar,C7440371,argon,150.86,48.9805,13.41,0.07457121551081282,1.2,8.805953389614235,0.0005026202100000001
181.03,432.95,26704.0,3.7448e-05,-1.7582,-0.13688,79.786,16.72,39.735,642.95,-0.021268,86.459,0.074328,supercritical,Ar,C7440371,argon,150.86,48.9805,13.41,0.07457121551081282,1.2,8.839231939241126,0.00050217768
181.03,434.58,26727.0,3.7415e-05,-1.7615,-0.13549,79.76,16.725,39.699,643.99,-0.021493,86.639,0.074456,supercritical,Ar,C7440371,argon,150.86,48.9805,13.41,0.07457121551081282,1.2,8.872510488868018,0.0005017351500000001
181.03,436.21,26750.0,3.7383e-05,-1.7648,-0.1341,79.734,16.73,39.664,645.02,-0.021716,86.818,0.074583,supercritical,Ar,C7440371,argon,150.86,48.9805,13.41,0.07457121551081282,1.2,8.90578903849491,0.0005013060300000001
181.03,437.84,26774.0,3.735e-05,-1.768,-0.13269,79.708,16.735,39.629,646.05,-0.021938,86.997,0.07471,supercritical,Ar,C7440371,argon,150.86,48.9805,13.41,0.07457121551081282,1.2,8.939067588121803,0.0005008635
181.03,439.47,26797.0,3.7318e-05,-1.7713,-0.13126,79.683,16.739,39.594,647.08,-0.022157,87.176,0.074837,supercritical,Ar,C7440371,argon,150.86,48.9805,13.41,0.07457121551081282,1.2,8.972346137748696,0.00050043438
181.03,441.1,26820.0,3.7286e-05,-1.7745,-0.12983,79.657,16.744,39.56,648.1,-0.022375,87.355,0.074963,supercritical,Ar,C7440371,argon,150.86,48.9805,13.41,0.07457121551081282,1.2,9.005624687375589,0.00050000526
181.03,442.73,26843.0,3.7254e-05,-1.7777,-0.12838,79.631,16.749,39.526,649.12,-0.022591,87.533,0.075089,supercritical,Ar,C7440371,argon,150.86,48.9805,13.41,0.07457121551081282,1.2,9.038903237002481,0.00049957614
181.03,444.36,26865.0,3.7222e-05,-1.7809,-0.12692,79.606,16.754,39.492,650.14,-0.022805,87.71,0.075215,supercritical,Ar,C7440371,argon,150.86,48.9805,13.41,0.07457121551081282,1.2,9.072181786629374,0.00049914702
181.03,445.99,26888.0,3.7191e-05,-1.7841,-0.12544,79.581,16.759,39.459,651.15,-0.023017,87.888,0.075341,supercritical,Ar,C7440371,argon,150.86,48.9805,13.41,0.07457121551081282,1.2,9.105460336256266,0.00049873131
181.03,447.62,26911.0,3.716e-05,-1.7873,-0.12395,79.555,16.764,39.425,652.16,-0.023228,88.064,0.075467,supercritical,Ar,C7440371,argon,150.86,48.9805,13.41,0.07457121551081282,1.2,9.138738885883157,0.0004983156000000001