Temperature (K),Pressure (bar),Density (mol/m3),Volume (m3/mol),Internal Energy (kJ/mol),Enthalpy (kJ/mol),Entropy (J/mol*K),Cv (J/mol*K),Cp (J/mol*K),Sound Spd. (m/s),Joule-Thomson (K/bar),Viscosity (uPa*s),Therm. Cond. (W/m*K),Phase,substance,substance_id,substance_name,Tc,Pc,rhoc,Vmc,Tr,Pr,Vmr
181.03,449.25,26933.0,3.7129e-05,-1.7905,-0.12246,79.53,16.769,39.392,653.17,-0.023437,88.241,0.075592,supercritical,Ar,C7440371,argon,150.86,48.9805,13.41,0.07457121551081282,1.2,9.17201743551005,0.0004978998900000001
181.03,450.88,26956.0,3.7098e-05,-1.7936,-0.12095,79.505,16.774,39.36,654.17,-0.023644,88.417,0.075717,supercritical,Ar,C7440371,argon,150.86,48.9805,13.41,0.07457121551081282,1.2,9.205295985136942,0.0004974841800000001
181.03,452.51,26978.0,3.7067e-05,-1.7967,-0.11942,79.48,16.779,39.327,655.17,-0.023849,88.593,0.075842,supercritical,Ar,C7440371,argon,150.86,48.9805,13.41,0.07457121551081282,1.2,9.238574534763835,0.0004970684700000001
181.03,454.14,27000.0,3.7037e-05,-1.7999,-0.11789,79.455,16.783,39.295,656.17,-0.024053,88.769,0.075966,supercritical,Ar,C7440371,argon,150.86,48.9805,13.41,0.07457121551081282,1.2,9.271853084390727,0.0004966661700000001
181.03,455.77,27022.0,3.7006e-05,-1.803,-0.11634,79.43,16.788,39.263,657.16,-0.024255,88.944,0.07609,supercritical,Ar,C7440371,argon,150.86,48.9805,13.41,0.07457121551081282,1.2,9.305131634017618,0.0004962504600000001
181.03,457.4,27044.0,3.6976e-05,-1.8061,-0.11478,79.406,16.793,39.231,658.16,-0.024456,89.119,0.076215,supercritical,Ar,C7440371,argon,150.86,48.9805,13.41,0.07457121551081282,1.2,9.33841018364451,0.00049584816
181.03,459.03,27066.0,3.6946e-05,-1.8092,-0.11321,79.381,16.798,39.2,659.14,-0.024654,89.293,0.076338,supercritical,Ar,C7440371,argon,150.86,48.9805,13.41,0.07457121551081282,1.2,9.371688733271403,0.0004954458600000001
181.03,460.66,27088.0,3.6916e-05,-1.8122,-0.11163,79.357,16.803,39.169,660.13,-0.024852,89.467,0.076462,supercritical,Ar,C7440371,argon,150.86,48.9805,13.41,0.07457121551081282,1.2,9.404967282898298,0.00049504356
181.03,462.29,27110.0,3.6887e-05,-1.8153,-0.11004,79.332,16.808,39.138,661.11,-0.025047,89.641,0.076585,supercritical,Ar,C7440371,argon,150.86,48.9805,13.41,0.07457121551081282,1.2,9.438245832525189,0.0004946546700000001
181.03,463.92,27132.0,3.6857e-05,-1.8183,-0.10844,79.308,16.813,39.107,662.09,-0.025241,89.814,0.076708,supercritical,Ar,C7440371,argon,150.86,48.9805,13.41,0.07457121551081282,1.2,9.471524382152081,0.0004942523700000001
181.03,465.55,27153.0,3.6828e-05,-1.8213,-0.10682,79.284,16.818,39.077,663.07,-0.025434,89.988,0.076831,supercritical,Ar,C7440371,argon,150.86,48.9805,13.41,0.07457121551081282,1.2,9.504802931778974,0.00049386348
181.03,467.18,27175.0,3.6799e-05,-1.8244,-0.1052,79.259,16.823,39.046,664.04,-0.025625,90.16,0.076954,supercritical,Ar,C7440371,argon,150.86,48.9805,13.41,0.07457121551081282,1.2,9.538081481405866,0.0004934745900000001
181.03,468.81,27196.0,3.677e-05,-1.8274,-0.10356,79.235,16.827,39.016,665.01,-0.025814,90.333,0.077077,supercritical,Ar,C7440371,argon,150.86,48.9805,13.41,0.07457121551081282,1.2,9.571360031032759,0.0004930857000000001
181.03,470.44,27218.0,3.6741e-05,-1.8303,-0.10191,79.211,16.832,38.987,665.98,-0.026003,90.505,0.077199,supercritical,Ar,C7440371,argon,150.86,48.9805,13.41,0.07457121551081282,1.2,9.60463858065965,0.0004926968100000001
181.03,472.07,27239.0,3.6712e-05,-1.8333,-0.10026,79.187,16.837,38.957,666.94,-0.026189,90.677,0.077321,supercritical,Ar,C7440371,argon,150.86,48.9805,13.41,0.07457121551081282,1.2,9.637917130286542,0.00049230792
181.03,473.7,27260.0,3.6684e-05,-1.8363,-0.098587,79.164,16.842,38.928,667.9,-0.026374,90.849,0.077443,supercritical,Ar,C7440371,argon,150.86,48.9805,13.41,0.07457121551081282,1.2,9.671195679913435,0.0004919324400000001
181.03,475.33,27281.0,3.6655e-05,-1.8392,-0.096909,79.14,16.847,38.899,668.86,-0.026558,91.02,0.077564,supercritical,Ar,C7440371,argon,150.86,48.9805,13.41,0.07457121551081282,1.2,9.704474229540327,0.0004915435500000001
181.03,476.96,27302.0,3.6627e-05,-1.8422,-0.09522,79.116,16.852,38.87,669.82,-0.02674,91.191,0.077686,supercritical,Ar,C7440371,argon,150.86,48.9805,13.41,0.07457121551081282,1.2,9.73775277916722,0.0004911680700000001
181.03,478.59,27323.0,3.6599e-05,-1.8451,-0.09352,79.093,16.857,38.842,670.77,-0.026921,91.361,0.077807,supercritical,Ar,C7440371,argon,150.86,48.9805,13.41,0.07457121551081282,1.2,9.77103132879411,0.00049079259
181.03,480.22,27344.0,3.6571e-05,-1.848,-0.091811,79.069,16.862,38.813,671.72,-0.0271,91.532,0.077928,supercritical,Ar,C7440371,argon,150.86,48.9805,13.41,0.07457121551081282,1.2,9.804309878421005,0.00049041711
181.03,481.85,27365.0,3.6543e-05,-1.8509,-0.090091,79.046,16.867,38.785,672.67,-0.027278,91.702,0.078048,supercritical,Ar,C7440371,argon,150.86,48.9805,13.41,0.07457121551081282,1.2,9.837588428047898,0.0004900416300000001
181.03,483.48,27386.0,3.6516e-05,-1.8538,-0.088362,79.022,16.871,38.757,673.61,-0.027455,91.872,0.078169,supercritical,Ar,C7440371,argon,150.86,48.9805,13.41,0.07457121551081282,1.2,9.870866977674789,0.0004896795600000001
181.03,485.11,27406.0,3.6488e-05,-1.8567,-0.086622,78.999,16.876,38.729,674.56,-0.027631,92.041,0.078289,supercritical,Ar,C7440371,argon,150.86,48.9805,13.41,0.07457121551081282,1.2,9.904145527301681,0.0004893040800000001
181.03,486.74,27427.0,3.6461e-05,-1.8596,-0.084873,78.976,16.881,38.702,675.5,-0.027805,92.21,0.078409,supercritical,Ar,C7440371,argon,150.86,48.9805,13.41,0.07457121551081282,1.2,9.937424076928574,0.0004889420100000001
181.03,488.37,27447.0,3.6434e-05,-1.8624,-0.083114,78.953,16.886,38.674,676.43,-0.027977,92.379,0.078529,supercritical,Ar,C7440371,argon,150.86,48.9805,13.41,0.07457121551081282,1.2,9.970702626555466,0.00048857994
181.03,490.0,27468.0,3.6407e-05,-1.8653,-0.081346,78.93,16.891,38.647,677.37,-0.028149,92.548,0.078649,supercritical,Ar,C7440371,argon,150.86,48.9805,13.41,0.07457121551081282,1.2,10.003981176182359,0.00048821787000000004
181.03,491.63,27488.0,3.638e-05,-1.8681,-0.079568,78.907,16.896,38.62,678.3,-0.028319,92.716,0.078768,supercritical,Ar,C7440371,argon,150.86,48.9805,13.41,0.07457121551081282,1.2,10.037259725809252,0.00048785580000000004
181.03,493.26,27508.0,3.6353e-05,-1.8709,-0.077781,78.884,16.901,38.594,679.23,-0.028488,92.884,0.078888,supercritical,Ar,C7440371,argon,150.86,48.9805,13.41,0.07457121551081282,1.2,10.070538275436142,0.0004874937300000001
181.03,494.89,27528.0,3.6326e-05,-1.8737,-0.075984,78.861,16.905,38.567,680.15,-0.028655,93.052,0.079007,supercritical,Ar,C7440371,argon,150.86,48.9805,13.41,0.07457121551081282,1.2,10.103816825063035,0.00048713166
181.03,496.52,27548.0,3.63e-05,-1.8765,-0.074178,78.838,16.91,38.541,681.08,-0.028822,93.219,0.079126,supercritical,Ar,C7440371,argon,150.86,48.9805,13.41,0.07457121551081282,1.2,10.137095374689927,0.00048678300000000007
181.03,498.15,27568.0,3.6273e-05,-1.8793,-0.072363,78.816,16.915,38.515,682.0,-0.028987,93.386,0.079244,supercritical,Ar,C7440371,argon,150.86,48.9805,13.41,0.07457121551081282,1.2,10.17037392431682,0.0004864209300000001
181.03,499.78,27588.0,3.6247e-05,-1.8821,-0.070538,78.793,16.92,38.489,682.92,-0.029151,93.553,0.079363,supercritical,Ar,C7440371,argon,150.86,48.9805,13.41,0.07457121551081282,1.2,10.203652473943713,0.00048607227000000005
181.03,501.41,27608.0,3.6221e-05,-1.8849,-0.068705,78.771,16.925,38.463,683.83,-0.029314,93.72,0.079481,supercritical,Ar,C7440371,argon,150.86,48.9805,13.41,0.07457121551081282,1.2,10.236931023570605,0.00048572361
181.03,503.04,27628.0,3.6195e-05,-1.8876,-0.066863,78.748,16.93,38.437,684.74,-0.029475,93.886,0.079599,supercritical,Ar,C7440371,argon,150.86,48.9805,13.41,0.07457121551081282,1.2,10.270209573197498,0.00048537495000000006
181.03,504.67,27648.0,3.6169e-05,-1.8904,-0.065012,78.726,16.935,38.412,685.65,-0.029635,94.052,0.079717,supercritical,Ar,C7440371,argon,150.86,48.9805,13.41,0.07457121551081282,1.2,10.30348812282439,0.00048502629000000003
181.03,506.3,27667.0,3.6144e-05,-1.8931,-0.063152,78.704,16.939,38.387,686.56,-0.029795,94.218,0.079834,supercritical,Ar,C7440371,argon,150.86,48.9805,13.41,0.07457121551081282,1.2,10.336766672451281,0.00048469104000000004
181.03,507.93,27687.0,3.6118e-05,-1.8958,-0.061283,78.681,16.944,38.362,687.47,-0.029953,94.384,0.079952,supercritical,Ar,C7440371,argon,150.86,48.9805,13.41,0.07457121551081282,1.2,10.370045222078174,0.00048434238000000007
181.03,509.56,27706.0,3.6093e-05,-1.8985,-0.059406,78.659,16.949,38.337,688.37,-0.03011,94.549,0.080069,supercritical,Ar,C7440371,argon,150.86,48.9805,13.41,0.07457121551081282,1.2,10.403323771705066,0.0004840071300000001
181.03,511.19,27726.0,3.6067e-05,-1.9013,-0.05752,78.637,16.954,38.312,689.27,-0.030265,94.714,0.080186,supercritical,Ar,C7440371,argon,150.86,48.9805,13.41,0.07457121551081282,1.2,10.436602321331959,0.00048365847000000006
181.03,512.82,27745.0,3.6042e-05,-1.9039,-0.055626,78.615,16.959,38.288,690.17,-0.03042,94.879,0.080303,supercritical,Ar,C7440371,argon,150.86,48.9805,13.41,0.07457121551081282,1.2,10.469880870958852,0.00048332322
181.03,514.45,27765.0,3.6017e-05,-1.9066,-0.053723,78.593,16.964,38.263,691.07,-0.030574,95.043,0.08042,supercritical,Ar,C7440371,argon,150.86,48.9805,13.41,0.07457121551081282,1.2,10.503159420585744,0.00048298797
181.03,516.08,27784.0,3.5992e-05,-1.9093,-0.051812,78.571,16.968,38.239,691.96,-0.030726,95.208,0.080536,supercritical,Ar,C7440371,argon,150.86,48.9805,13.41,0.07457121551081282,1.2,10.536437970212637,0.00048265272
181.03,517.71,27803.0,3.5967e-05,-1.912,-0.049893,78.55,16.973,38.215,692.85,-0.030877,95.372,0.080653,supercritical,Ar,C7440371,argon,150.86,48.9805,13.41,0.07457121551081282,1.2,10.56971651983953,0.0004823174700000001
181.03,519.34,27822.0,3.5943e-05,-1.9146,-0.047965,78.528,16.978,38.191,693.74,-0.031028,95.536,0.080769,supercritical,Ar,C7440371,argon,150.86,48.9805,13.41,0.07457121551081282,1.2,10.602995069466422,0.00048199563
181.03,520.97,27841.0,3.5918e-05,-1.9173,-0.04603,78.506,16.983,38.168,694.63,-0.031177,95.699,0.080885,supercritical,Ar,C7440371,argon,150.86,48.9805,13.41,0.07457121551081282,1.2,10.636273619093313,0.00048166038
181.03,522.6,27860.0,3.5894e-05,-1.9199,-0.044086,78.485,16.988,38.144,695.51,-0.031325,95.863,0.081001,supercritical,Ar,C7440371,argon,150.86,48.9805,13.41,0.07457121551081282,1.2,10.669552168720205,0.00048133854000000006
181.03,524.23,27879.0,3.5869e-05,-1.9225,-0.042135,78.463,16.993,38.121,696.39,-0.031472,96.026,0.081116,supercritical,Ar,C7440371,argon,150.86,48.9805,13.41,0.07457121551081282,1.2,10.702830718347098,0.00048100329
181.03,525.86,27898.0,3.5845e-05,-1.9251,-0.040175,78.442,16.997,38.098,697.27,-0.031618,96.188,0.081232,supercritical,Ar,C7440371,argon,150.86,48.9805,13.41,0.07457121551081282,1.2,10.73610926797399,0.00048068145000000005
181.03,527.49,27917.0,3.5821e-05,-1.9277,-0.038208,78.42,17.002,38.075,698.15,-0.031763,96.351,0.081347,supercritical,Ar,C7440371,argon,150.86,48.9805,13.41,0.07457121551081282,1.2,10.769387817600883,0.0004803596100000001
181.03,529.12,27935.0,3.5797e-05,-1.9303,-0.036232,78.399,17.007,38.052,699.02,-0.031907,96.513,0.081462,supercritical,Ar,C7440371,argon,150.86,48.9805,13.41,0.07457121551081282,1.2,10.802666367227774,0.00048003777000000007
181.03,530.75,27954.0,3.5773e-05,-1.9329,-0.03425,78.378,17.012,38.029,699.9,-0.03205,96.676,0.081577,supercritical,Ar,C7440371,argon,150.86,48.9805,13.41,0.07457121551081282,1.2,10.835944916854666,0.00047971593
181.03,532.38,27973.0,3.5749e-05,-1.9355,-0.032259,78.356,17.017,38.007,700.77,-0.032193,96.838,0.081691,supercritical,Ar,C7440371,argon,150.86,48.9805,13.41,0.07457121551081282,1.2,10.869223466481559,0.00047939409000000003
181.03,534.01,27991.0,3.5726e-05,-1.938,-0.030261,78.335,17.021,37.984,701.64,-0.032334,96.999,0.081806,supercritical,Ar,C7440371,argon,150.86,48.9805,13.41,0.07457121551081282,1.2,10.902502016108452,0.0004790856600000001
181.03,535.64,28010.0,3.5702e-05,-1.9406,-0.028255,78.314,17.026,37.962,702.5,-0.032474,97.161,0.08192,supercritical,Ar,C7440371,argon,150.86,48.9805,13.41,0.07457121551081282,1.2,10.935780565735344,0.00047876382
181.03,537.27,28028.0,3.5679e-05,-1.9432,-0.026242,78.293,17.031,37.94,703.37,-0.032613,97.322,0.082034,supercritical,Ar,C7440371,argon,150.86,48.9805,13.41,0.07457121551081282,1.2,10.969059115362235,0.0004784553900000001
181.03,538.9,28046.0,3.5655e-05,-1.9457,-0.024222,78.272,17.036,37.918,704.23,-0.032751,97.483,0.082148,supercritical,Ar,C7440371,argon,150.86,48.9805,13.41,0.07457121551081282,1.2,11.002337664989128,0.0004781335500000001
181.03,540.53,28065.0,3.5632e-05,-1.9482,-0.022194,78.251,17.041,37.896,705.09,-0.032888,97.644,0.082262,supercritical,Ar,C7440371,argon,150.86,48.9805,13.41,0.07457121551081282,1.2,11.03561621461602,0.00047782512000000004
181.03,542.16,28083.0,3.5609e-05,-1.9507,-0.020158,78.231,17.045,37.875,705.94,-0.033025,97.804,0.082376,supercritical,Ar,C7440371,argon,150.86,48.9805,13.41,0.07457121551081282,1.2,11.068894764242913,0.00047751669
181.03,543.79,28101.0,3.5586e-05,-1.9532,-0.018116,78.21,17.05,37.853,706.8,-0.03316,97.965,0.082489,supercritical,Ar,C7440371,argon,150.86,48.9805,13.41,0.07457121551081282,1.2,11.102173313869805,0.00047720826000000006
181.03,545.42,28119.0,3.5563e-05,-1.9557,-0.016066,78.189,17.055,37.832,707.65,-0.033295,98.125,0.082602,supercritical,Ar,C7440371,argon,150.86,48.9805,13.41,0.07457121551081282,1.2,11.135451863496696,0.00047689983
181.03,547.05,28137.0,3.554e-05,-1.9582,-0.01401,78.168,17.06,37.811,708.5,-0.033428,98.285,0.082716,supercritical,Ar,C7440371,argon,150.86,48.9805,13.41,0.07457121551081282,1.2,11.168730413123589,0.0004765914000000001
181.03,548.68,28155.0,3.5518e-05,-1.9607,-0.011946,78.148,17.064,37.79,709.35,-0.033561,98.444,0.082828,supercritical,Ar,C7440371,argon,150.86,48.9805,13.41,0.07457121551081282,1.2,11.202008962750481,0.0004762963800000001
181.03,550.31,28173.0,3.5495e-05,-1.9632,-0.0098752,78.127,17.069,37.769,710.2,-0.033693,98.604,0.082941,supercritical,Ar,C7440371,argon,150.86,48.9805,13.41,0.07457121551081282,1.2,11.235287512377374,0.00047598795000000003
181.03,551.94,28191.0,3.5472e-05,-1.9657,-0.0077975,78.107,17.074,37.748,711.04,-0.033824,98.763,0.083054,supercritical,Ar,C7440371,argon,150.86,48.9805,13.41,0.07457121551081282,1.2,11.268566062004268,0.00047567952000000005
181.03,553.57,28209.0,3.545e-05,-1.9681,-0.005713,78.086,17.079,37.727,711.88,-0.033954,98.922,0.083166,supercritical,Ar,C7440371,argon,150.86,48.9805,13.41,0.07457121551081282,1.2,11.30184461163116,0.00047538450000000004
181.03,555.2,28226.0,3.5428e-05,-1.9706,-0.0036216,78.066,17.084,37.707,712.72,-0.034083,99.081,0.083279,supercritical,Ar,C7440371,argon,150.86,48.9805,13.41,0.07457121551081282,1.2,11.335123161258053,0.00047508948
181.03,556.83,28244.0,3.5406e-05,-1.973,-0.0015234,78.046,17.088,37.686,713.56,-0.034212,99.24,0.083391,supercritical,Ar,C7440371,argon,150.86,48.9805,13.41,0.07457121551081282,1.2,11.368401710884944,0.00047479446
181.03,558.46,28262.0,3.5383e-05,-1.9754,0.00058156,78.026,17.093,37.666,714.4,-0.034339,99.399,0.083503,supercritical,Ar,C7440371,argon,150.86,48.9805,13.41,0.07457121551081282,1.2,11.401680260511837,0.0004744860300000001
181.03,560.09,28279.0,3.5361e-05,-1.9779,0.0026932,78.005,17.098,37.646,715.23,-0.034466,99.557,0.083614,supercritical,Ar,C7440371,argon,150.86,48.9805,13.41,0.07457121551081282,1.2,11.43495881013873,0.00047419101000000007
181.03,561.72,28297.0,3.534e-05,-1.9803,0.0048114,77.985,17.103,37.626,716.06,-0.034592,99.715,0.083726,supercritical,Ar,C7440371,argon,150.86,48.9805,13.41,0.07457121551081282,1.2,11.468237359765622,0.00047390940000000003
181.03,563.35,28314.0,3.5318e-05,-1.9827,0.0069361,77.965,17.107,37.606,716.89,-0.034717,99.873,0.083837,supercritical,Ar,C7440371,argon,150.86,48.9805,13.41,0.07457121551081282,1.2,11.501515909392515,0.0004736143800000001
181.03,564.98,28332.0,3.5296e-05,-1.9851,0.0090674,77.945,17.112,37.586,717.72,-0.034841,100.03,0.083949,supercritical,Ar,C7440371,argon,150.86,48.9805,13.41,0.07457121551081282,1.2,11.534794459019405,0.00047331936000000007
181.03,566.61,28349.0,3.5274e-05,-1.9875,0.011205,77.925,17.117,37.567,718.55,-0.034964,100.19,0.08406,supercritical,Ar,C7440371,argon,150.86,48.9805,13.41,0.07457121551081282,1.2,11.568073008646298,0.00047302434000000005
181.03,568.24,28367.0,3.5253e-05,-1.9899,0.013349,77.905,17.121,37.547,719.37,-0.035087,100.35,0.084171,supercritical,Ar,C7440371,argon,150.86,48.9805,13.41,0.07457121551081282,1.2,11.60135155827319,0.00047274273000000007
181.03,569.87,28384.0,3.5231e-05,-1.9922,0.0155,77.885,17.126,37.528,720.2,-0.035209,100.5,0.084281,supercritical,Ar,C7440371,argon,150.86,48.9805,13.41,0.07457121551081282,1.2,11.634630107900083,0.00047244771000000006
181.03,571.5,28401.0,3.521e-05,-1.9946,0.017657,77.866,17.131,37.508,721.02,-0.03533,100.66,0.084392,supercritical,Ar,C7440371,argon,150.86,48.9805,13.41,0.07457121551081282,1.2,11.667908657526976,0.0004721661
181.03,573.13,28418.0,3.5189e-05,-1.997,0.01982,77.846,17.136,37.489,721.83,-0.03545,100.82,0.084502,supercritical,Ar,C7440371,argon,150.86,48.9805,13.41,0.07457121551081282,1.2,11.701187207153868,0.00047188449000000004
181.03,574.76,28435.0,3.5168e-05,-1.9993,0.021989,77.826,17.14,37.47,722.65,-0.035569,100.97,0.084613,supercritical,Ar,C7440371,argon,150.86,48.9805,13.41,0.07457121551081282,1.2,11.734465756780759,0.00047160288000000006
181.03,576.39,28452.0,3.5147e-05,-2.0016,0.024165,77.807,17.145,37.451,723.46,-0.035688,101.13,0.084723,supercritical,Ar,C7440371,argon,150.86,48.9805,13.41,0.07457121551081282,1.2,11.767744306407652,0.0004713212700000001
181.03,578.02,28469.0,3.5126e-05,-2.004,0.026347,77.787,17.15,37.433,724.28,-0.035806,101.29,0.084833,supercritical,Ar,C7440371,argon,150.86,48.9805,13.41,0.07457121551081282,1.2,11.801022856034544,0.0004710396600000001
181.03,579.65,28486.0,3.5105e-05,-2.0063,0.028534,77.767,17.155,37.414,725.09,-0.035923,101.44,0.084943,supercritical,Ar,C7440371,argon,150.86,48.9805,13.41,0.07457121551081282,1.2,11.834301405661437,0.00047075805
181.03,581.28,28503.0,3.5084e-05,-2.0086,0.030728,77.748,17.159,37.395,725.9,-0.03604,101.6,0.085052,supercritical,Ar,C7440371,argon,150.86,48.9805,13.41,0.07457121551081282,1.2,11.86757995528833,0.00047047644000000003
181.03,582.91,28520.0,3.5063e-05,-2.0109,0.032928,77.728,17.164,37.377,726.7,-0.036156,101.75,0.085162,supercritical,Ar,C7440371,argon,150.86,48.9805,13.41,0.07457121551081282,1.2,11.90085850491522,0.00047019483000000005
181.03,584.54,28537.0,3.5042e-05,-2.0132,0.035134,77.709,17.169,37.359,727.51,-0.036271,101.91,0.085271,supercritical,Ar,C7440371,argon,150.86,48.9805,13.41,0.07457121551081282,1.2,11.934137054542113,0.00046991322000000007
181.03,586.17,28554.0,3.5022e-05,-2.0155,0.037345,77.69,17.173,37.34,728.31,-0.036385,102.06,0.08538,supercritical,Ar,C7440371,argon,150.86,48.9805,13.41,0.07457121551081282,1.2,11.967415604169005,0.00046964502
181.03,587.8,28570.0,3.5001e-05,-2.0178,0.039563,77.671,17.178,37.322,729.11,-0.036498,102.22,0.08549,supercritical,Ar,C7440371,argon,150.86,48.9805,13.41,0.07457121551081282,1.2,12.000694153795898,0.00046936341000000003
181.03,589.43,28587.0,3.4981e-05,-2.0201,0.041786,77.651,17.183,37.304,729.91,-0.036611,102.37,0.085599,supercritical,Ar,C7440371,argon,150.86,48.9805,13.41,0.07457121551081282,1.2,12.03397270342279,0.0004690952100000001
181.03,591.06,28604.0,3.4961e-05,-2.0224,0.044015,77.632,17.187,37.287,730.71,-0.036723,102.53,0.085709,supercritical,Ar,C7440371,argon,150.86,48.9805,13.41,0.07457121551081282,1.2,12.067251253049681,0.00046882701
181.03,592.69,28620.0,3.494e-05,-2.0246,0.04625,77.613,17.192,37.269,731.51,-0.036835,102.68,0.085818,supercritical,Ar,C7440371,argon,150.86,48.9805,13.41,0.07457121551081282,1.2,12.100529802676578,0.00046854540000000004