Temperature (K),Pressure (bar),Density (mol/m3),Volume (m3/mol),Internal Energy (kJ/mol),Enthalpy (kJ/mol),Entropy (J/mol*K),Cv (J/mol*K),Cp (J/mol*K),Sound Spd. (m/s),Joule-Thomson (K/bar),Viscosity (uPa*s),Therm. Cond. (W/m*K),Phase,substance,substance_id,substance_name,Tc,Pc,rhoc,Vmc,Tr,Pr,Vmr
273.76,913.04,26653.0,3.7519e-05,6.0058,9.4314,33.234,42.267,72.735,1112.4,-0.025101,220.73,0.18272,liquid,CO2,C124389,carbon-dioxide,304.18,73.8,10.6,0.09433962264150944,0.9,12.371815718157182,0.00039770139999999995
273.76,915.5,26661.0,3.7508e-05,6.002,9.4359,33.217,42.272,72.719,1113.3,-0.025134,221.0,0.18286,liquid,CO2,C124389,carbon-dioxide,304.18,73.8,10.6,0.09433962264150944,0.9,12.405149051490515,0.0003975848
273.76,917.96,26668.0,3.7497e-05,5.9983,9.4404,33.2,42.277,72.704,1114.2,-0.025167,221.27,0.183,liquid,CO2,C124389,carbon-dioxide,304.18,73.8,10.6,0.09433962264150944,0.9,12.43848238482385,0.00039746819999999996
273.76,920.42,26676.0,3.7487e-05,5.9946,9.4449,33.182,42.282,72.689,1115.1,-0.025199,221.54,0.18314,liquid,CO2,C124389,carbon-dioxide,304.18,73.8,10.6,0.09433962264150944,0.9,12.471815718157181,0.00039736219999999997
273.76,922.87,26684.0,3.7476e-05,5.9909,9.4494,33.165,42.287,72.673,1116.0,-0.025232,221.82,0.18328,liquid,CO2,C124389,carbon-dioxide,304.18,73.8,10.6,0.09433962264150944,0.9,12.505013550135502,0.00039724559999999994
273.76,925.33,26692.0,3.7465e-05,5.9872,9.4539,33.148,42.292,72.658,1116.9,-0.025264,222.09,0.18343,liquid,CO2,C124389,carbon-dioxide,304.18,73.8,10.6,0.09433962264150944,0.9,12.538346883468837,0.00039712899999999997
273.76,927.79,26699.0,3.7454e-05,5.9835,9.4584,33.131,42.297,72.643,1117.8,-0.025296,222.36,0.18357,liquid,CO2,C124389,carbon-dioxide,304.18,73.8,10.6,0.09433962264150944,0.9,12.571680216802168,0.00039701239999999995
273.76,930.25,26707.0,3.7443e-05,5.9798,9.463,33.114,42.302,72.628,1118.7,-0.025328,222.63,0.18371,liquid,CO2,C124389,carbon-dioxide,304.18,73.8,10.6,0.09433962264150944,0.9,12.605013550135501,0.0003968958
273.76,932.71,26715.0,3.7433e-05,5.9761,9.4675,33.097,42.307,72.613,1119.6,-0.025359,222.9,0.18385,liquid,CO2,C124389,carbon-dioxide,304.18,73.8,10.6,0.09433962264150944,0.9,12.638346883468836,0.00039678979999999993
273.76,935.17,26722.0,3.7422e-05,5.9724,9.472,33.08,42.312,72.599,1120.5,-0.025391,223.18,0.18399,liquid,CO2,C124389,carbon-dioxide,304.18,73.8,10.6,0.09433962264150944,0.9,12.671680216802168,0.0003966732
273.76,937.62,26730.0,3.7411e-05,5.9688,9.4765,33.063,42.317,72.584,1121.4,-0.025423,223.45,0.18413,liquid,CO2,C124389,carbon-dioxide,304.18,73.8,10.6,0.09433962264150944,0.9,12.704878048780488,0.00039655659999999994
273.76,940.08,26738.0,3.7401e-05,5.9651,9.4811,33.046,42.322,72.569,1122.3,-0.025454,223.72,0.18427,liquid,CO2,C124389,carbon-dioxide,304.18,73.8,10.6,0.09433962264150944,0.9,12.738211382113823,0.0003964506
273.76,942.54,26745.0,3.739e-05,5.9615,9.4856,33.029,42.327,72.554,1123.1,-0.025485,223.99,0.18441,liquid,CO2,C124389,carbon-dioxide,304.18,73.8,10.6,0.09433962264150944,0.9,12.771544715447154,0.000396334
273.76,945.0,26753.0,3.7379e-05,5.9578,9.4902,33.012,42.332,72.54,1124.0,-0.025516,224.26,0.18455,liquid,CO2,C124389,carbon-dioxide,304.18,73.8,10.6,0.09433962264150944,0.9,12.804878048780488,0.0003962174
273.76,947.46,26760.0,3.7369e-05,5.9542,9.4947,32.995,42.338,72.525,1124.9,-0.025547,224.53,0.18469,liquid,CO2,C124389,carbon-dioxide,304.18,73.8,10.6,0.09433962264150944,0.9,12.838211382113823,0.00039611139999999996
273.76,949.92,26768.0,3.7358e-05,5.9506,9.4993,32.978,42.343,72.511,1125.8,-0.025578,224.8,0.18483,liquid,CO2,C124389,carbon-dioxide,304.18,73.8,10.6,0.09433962264150944,0.9,12.871544715447154,0.00039599479999999994
273.76,952.37,26775.0,3.7348e-05,5.9469,9.5038,32.961,42.348,72.497,1126.7,-0.025608,225.07,0.18497,liquid,CO2,C124389,carbon-dioxide,304.18,73.8,10.6,0.09433962264150944,0.9,12.904742547425474,0.0003958888
273.76,954.83,26783.0,3.7337e-05,5.9433,9.5084,32.944,42.353,72.482,1127.6,-0.025639,225.35,0.18511,liquid,CO2,C124389,carbon-dioxide,304.18,73.8,10.6,0.09433962264150944,0.9,12.93807588075881,0.0003957722
273.76,957.29,26790.0,3.7327e-05,5.9397,9.513,32.927,42.358,72.468,1128.4,-0.025669,225.62,0.18525,liquid,CO2,C124389,carbon-dioxide,304.18,73.8,10.6,0.09433962264150944,0.9,12.97140921409214,0.00039566619999999994
273.76,959.75,26798.0,3.7316e-05,5.9361,9.5176,32.91,42.363,72.454,1129.3,-0.025699,225.89,0.18539,liquid,CO2,C124389,carbon-dioxide,304.18,73.8,10.6,0.09433962264150944,0.9,13.004742547425474,0.00039554959999999996
273.76,962.21,26805.0,3.7306e-05,5.9325,9.5221,32.894,42.368,72.44,1130.2,-0.025729,226.16,0.18552,liquid,CO2,C124389,carbon-dioxide,304.18,73.8,10.6,0.09433962264150944,0.9,13.038075880758809,0.0003954436
273.76,964.67,26813.0,3.7296e-05,5.9289,9.5267,32.877,42.373,72.426,1131.1,-0.025759,226.43,0.18566,liquid,CO2,C124389,carbon-dioxide,304.18,73.8,10.6,0.09433962264150944,0.9,13.07140921409214,0.00039533759999999993
273.76,967.12,26820.0,3.7285e-05,5.9254,9.5313,32.86,42.378,72.412,1132.0,-0.025789,226.7,0.1858,liquid,CO2,C124389,carbon-dioxide,304.18,73.8,10.6,0.09433962264150944,0.9,13.104607046070461,0.00039522099999999996
273.76,969.58,26828.0,3.7275e-05,5.9218,9.5359,32.843,42.383,72.398,1132.8,-0.025819,226.97,0.18594,liquid,CO2,C124389,carbon-dioxide,304.18,73.8,10.6,0.09433962264150944,0.9,13.137940379403796,0.000395115
273.76,972.04,26835.0,3.7265e-05,5.9182,9.5405,32.827,42.388,72.384,1133.7,-0.025848,227.24,0.18608,liquid,CO2,C124389,carbon-dioxide,304.18,73.8,10.6,0.09433962264150944,0.9,13.171273712737127,0.000395009
273.76,974.5,26843.0,3.7254e-05,5.9147,9.5451,32.81,42.393,72.37,1134.6,-0.025878,227.51,0.18622,liquid,CO2,C124389,carbon-dioxide,304.18,73.8,10.6,0.09433962264150944,0.9,13.20460704607046,0.00039489239999999996
273.76,976.96,26850.0,3.7244e-05,5.9111,9.5497,32.794,42.398,72.357,1135.4,-0.025907,227.78,0.18635,liquid,CO2,C124389,carbon-dioxide,304.18,73.8,10.6,0.09433962264150944,0.9,13.237940379403796,0.00039478639999999997
273.76,979.42,26857.0,3.7234e-05,5.9076,9.5543,32.777,42.403,72.343,1136.3,-0.025936,228.05,0.18649,liquid,CO2,C124389,carbon-dioxide,304.18,73.8,10.6,0.09433962264150944,0.9,13.271273712737127,0.0003946804
273.76,981.87,26865.0,3.7223e-05,5.9041,9.5589,32.76,42.408,72.33,1137.2,-0.025965,228.32,0.18663,liquid,CO2,C124389,carbon-dioxide,304.18,73.8,10.6,0.09433962264150944,0.9,13.304471544715447,0.00039456379999999996
273.76,984.33,26872.0,3.7213e-05,5.9005,9.5636,32.744,42.413,72.316,1138.0,-0.025994,228.59,0.18677,liquid,CO2,C124389,carbon-dioxide,304.18,73.8,10.6,0.09433962264150944,0.9,13.337804878048782,0.00039445779999999997
273.76,986.79,26879.0,3.7203e-05,5.897,9.5682,32.727,42.418,72.303,1138.9,-0.026023,228.86,0.18691,liquid,CO2,C124389,carbon-dioxide,304.18,73.8,10.6,0.09433962264150944,0.9,13.371138211382114,0.0003943518
273.76,989.25,26887.0,3.7193e-05,5.8935,9.5728,32.711,42.423,72.289,1139.8,-0.026052,229.13,0.18704,liquid,CO2,C124389,carbon-dioxide,304.18,73.8,10.6,0.09433962264150944,0.9,13.404471544715447,0.0003942458
273.76,991.71,26894.0,3.7183e-05,5.89,9.5774,32.694,42.428,72.276,1140.6,-0.02608,229.39,0.18718,liquid,CO2,C124389,carbon-dioxide,304.18,73.8,10.6,0.09433962264150944,0.9,13.437804878048782,0.00039413979999999995
273.76,994.17,26901.0,3.7173e-05,5.8865,9.5821,32.678,42.433,72.263,1141.5,-0.026109,229.66,0.18732,liquid,CO2,C124389,carbon-dioxide,304.18,73.8,10.6,0.09433962264150944,0.9,13.471138211382113,0.00039403379999999996
273.76,996.62,26909.0,3.7163e-05,5.883,9.5867,32.661,42.438,72.249,1142.3,-0.026137,229.93,0.18746,liquid,CO2,C124389,carbon-dioxide,304.18,73.8,10.6,0.09433962264150944,0.9,13.504336043360434,0.0003939278
273.76,999.08,26916.0,3.7153e-05,5.8795,9.5914,32.645,42.443,72.236,1143.2,-0.026165,230.2,0.18759,liquid,CO2,C124389,carbon-dioxide,304.18,73.8,10.6,0.09433962264150944,0.9,13.537669376693769,0.0003938218
273.76,1001.5,26923.0,3.7143e-05,5.876,9.596,32.629,42.448,72.223,1144.1,-0.026193,230.47,0.18773,liquid,CO2,C124389,carbon-dioxide,304.18,73.8,10.6,0.09433962264150944,0.9,13.570460704607047,0.0003937158
273.76,1004.0,26931.0,3.7133e-05,5.8725,9.6007,32.612,42.453,72.21,1144.9,-0.026221,230.74,0.18787,liquid,CO2,C124389,carbon-dioxide,304.18,73.8,10.6,0.09433962264150944,0.9,13.604336043360433,0.00039360979999999995
273.76,1006.5,26938.0,3.7123e-05,5.8691,9.6053,32.596,42.458,72.197,1145.8,-0.026249,231.01,0.188,liquid,CO2,C124389,carbon-dioxide,304.18,73.8,10.6,0.09433962264150944,0.9,13.638211382113822,0.00039350379999999996
273.76,1008.9,26945.0,3.7113e-05,5.8656,9.61,32.58,42.463,72.184,1146.6,-0.026276,231.28,0.18814,liquid,CO2,C124389,carbon-dioxide,304.18,73.8,10.6,0.09433962264150944,0.9,13.670731707317074,0.0003933978
273.76,1011.4,26952.0,3.7103e-05,5.8622,9.6146,32.563,42.468,72.171,1147.5,-0.026304,231.55,0.18828,liquid,CO2,C124389,carbon-dioxide,304.18,73.8,10.6,0.09433962264150944,0.9,13.70460704607046,0.0003932918
273.76,1013.8,26959.0,3.7093e-05,5.8587,9.6193,32.547,42.473,72.158,1148.3,-0.026331,231.81,0.18841,liquid,CO2,C124389,carbon-dioxide,304.18,73.8,10.6,0.09433962264150944,0.9,13.737127371273713,0.00039318579999999994
273.76,1016.3,26967.0,3.7083e-05,5.8553,9.624,32.531,42.478,72.146,1149.2,-0.026359,232.08,0.18855,liquid,CO2,C124389,carbon-dioxide,304.18,73.8,10.6,0.09433962264150944,0.9,13.7710027100271,0.00039307979999999996
273.76,1018.7,26974.0,3.7073e-05,5.8518,9.6287,32.515,42.483,72.133,1150.0,-0.026386,232.35,0.18868,liquid,CO2,C124389,carbon-dioxide,304.18,73.8,10.6,0.09433962264150944,0.9,13.803523035230354,0.0003929738
273.76,1021.2,26981.0,3.7063e-05,5.8484,9.6333,32.498,42.488,72.12,1150.8,-0.026413,232.62,0.18882,liquid,CO2,C124389,carbon-dioxide,304.18,73.8,10.6,0.09433962264150944,0.9,13.83739837398374,0.0003928678
273.76,1023.7,26988.0,3.7053e-05,5.845,9.638,32.482,42.493,72.108,1151.7,-0.02644,232.89,0.18896,liquid,CO2,C124389,carbon-dioxide,304.18,73.8,10.6,0.09433962264150944,0.9,13.871273712737128,0.00039276179999999994
273.76,1026.1,26995.0,3.7044e-05,5.8416,9.6427,32.466,42.498,72.095,1152.5,-0.026467,233.15,0.18909,liquid,CO2,C124389,carbon-dioxide,304.18,73.8,10.6,0.09433962264150944,0.9,13.90379403794038,0.0003926664
273.76,1028.6,27002.0,3.7034e-05,5.8382,9.6474,32.45,42.503,72.083,1153.4,-0.026494,233.42,0.18923,liquid,CO2,C124389,carbon-dioxide,304.18,73.8,10.6,0.09433962264150944,0.9,13.937669376693766,0.00039256039999999994
273.76,1031.0,27009.0,3.7024e-05,5.8348,9.6521,32.434,42.508,72.07,1154.2,-0.02652,233.69,0.18936,liquid,CO2,C124389,carbon-dioxide,304.18,73.8,10.6,0.09433962264150944,0.9,13.97018970189702,0.0003924544
273.76,1033.5,27017.0,3.7014e-05,5.8314,9.6568,32.418,42.514,72.058,1155.1,-0.026547,233.96,0.1895,liquid,CO2,C124389,carbon-dioxide,304.18,73.8,10.6,0.09433962264150944,0.9,14.004065040650406,0.00039234839999999997
273.76,1036.0,27024.0,3.7005e-05,5.828,9.6615,32.402,42.519,72.046,1155.9,-0.026573,234.23,0.18963,liquid,CO2,C124389,carbon-dioxide,304.18,73.8,10.6,0.09433962264150944,0.9,14.037940379403794,0.000392253
273.76,1038.4,27031.0,3.6995e-05,5.8246,9.6662,32.386,42.524,72.033,1156.7,-0.0266,234.49,0.18977,liquid,CO2,C124389,carbon-dioxide,304.18,73.8,10.6,0.09433962264150944,0.9,14.070460704607047,0.00039214699999999997
273.76,1040.9,27038.0,3.6985e-05,5.8212,9.6709,32.37,42.529,72.021,1157.6,-0.026626,234.76,0.1899,liquid,CO2,C124389,carbon-dioxide,304.18,73.8,10.6,0.09433962264150944,0.9,14.104336043360435,0.000392041
273.76,1043.3,27045.0,3.6976e-05,5.8179,9.6756,32.354,42.534,72.009,1158.4,-0.026652,235.03,0.19004,liquid,CO2,C124389,carbon-dioxide,304.18,73.8,10.6,0.09433962264150944,0.9,14.136856368563686,0.0003919456
273.76,1045.8,27052.0,3.6966e-05,5.8145,9.6804,32.338,42.539,71.997,1159.2,-0.026678,235.3,0.19017,liquid,CO2,C124389,carbon-dioxide,304.18,73.8,10.6,0.09433962264150944,0.9,14.170731707317072,0.00039183959999999993
273.76,1048.2,27059.0,3.6956e-05,5.8111,9.6851,32.322,42.544,71.985,1160.1,-0.026704,235.56,0.19031,liquid,CO2,C124389,carbon-dioxide,304.18,73.8,10.6,0.09433962264150944,0.9,14.203252032520327,0.0003917336
273.76,1050.7,27066.0,3.6947e-05,5.8078,9.6898,32.306,42.549,71.973,1160.9,-0.026729,235.83,0.19044,liquid,CO2,C124389,carbon-dioxide,304.18,73.8,10.6,0.09433962264150944,0.9,14.237127371273713,0.00039163819999999994
273.76,1053.2,27073.0,3.6937e-05,5.8044,9.6945,32.29,42.554,71.961,1161.7,-0.026755,236.1,0.19058,liquid,CO2,C124389,carbon-dioxide,304.18,73.8,10.6,0.09433962264150944,0.9,14.271002710027101,0.0003915322
273.76,1055.6,27080.0,3.6928e-05,5.8011,9.6993,32.274,42.559,71.949,1162.5,-0.026781,236.36,0.19071,liquid,CO2,C124389,carbon-dioxide,304.18,73.8,10.6,0.09433962264150944,0.9,14.303523035230352,0.0003914368
273.76,1058.1,27087.0,3.6918e-05,5.7978,9.704,32.258,42.564,71.937,1163.4,-0.026806,236.63,0.19085,liquid,CO2,C124389,carbon-dioxide,304.18,73.8,10.6,0.09433962264150944,0.9,14.337398373983739,0.0003913308
273.76,1060.5,27094.0,3.6909e-05,5.7944,9.7088,32.243,42.569,71.926,1164.2,-0.026831,236.9,0.19098,liquid,CO2,C124389,carbon-dioxide,304.18,73.8,10.6,0.09433962264150944,0.9,14.369918699186993,0.0003912354
273.76,1063.0,27101.0,3.6899e-05,5.7911,9.7135,32.227,42.574,71.914,1165.0,-0.026857,237.16,0.19111,liquid,CO2,C124389,carbon-dioxide,304.18,73.8,10.6,0.09433962264150944,0.9,14.40379403794038,0.00039112939999999996
273.76,1065.5,27108.0,3.689e-05,5.7878,9.7183,32.211,42.579,71.902,1165.8,-0.026882,237.43,0.19125,liquid,CO2,C124389,carbon-dioxide,304.18,73.8,10.6,0.09433962264150944,0.9,14.437669376693767,0.00039103399999999996
273.76,1067.9,27115.0,3.688e-05,5.7845,9.723,32.195,42.584,71.891,1166.7,-0.026907,237.7,0.19138,liquid,CO2,C124389,carbon-dioxide,304.18,73.8,10.6,0.09433962264150944,0.9,14.47018970189702,0.00039092799999999997
273.76,1070.4,27122.0,3.6871e-05,5.7812,9.7278,32.179,42.589,71.879,1167.5,-0.026932,237.96,0.19151,liquid,CO2,C124389,carbon-dioxide,304.18,73.8,10.6,0.09433962264150944,0.9,14.504065040650408,0.00039083259999999996
273.76,1072.8,27129.0,3.6862e-05,5.7779,9.7325,32.164,42.594,71.867,1168.3,-0.026956,238.23,0.19165,liquid,CO2,C124389,carbon-dioxide,304.18,73.8,10.6,0.09433962264150944,0.9,14.536585365853659,0.00039073719999999996
273.76,1075.3,27135.0,3.6852e-05,5.7746,9.7373,32.148,42.599,71.856,1169.1,-0.026981,238.5,0.19178,liquid,CO2,C124389,carbon-dioxide,304.18,73.8,10.6,0.09433962264150944,0.9,14.570460704607045,0.00039063119999999997
273.76,1077.7,27142.0,3.6843e-05,5.7713,9.7421,32.132,42.604,71.845,1169.9,-0.027006,238.76,0.19192,liquid,CO2,C124389,carbon-dioxide,304.18,73.8,10.6,0.09433962264150944,0.9,14.6029810298103,0.00039053579999999996
273.76,1080.2,27149.0,3.6833e-05,5.7681,9.7468,32.117,42.609,71.833,1170.8,-0.02703,239.03,0.19205,liquid,CO2,C124389,carbon-dioxide,304.18,73.8,10.6,0.09433962264150944,0.9,14.636856368563686,0.0003904298
273.76,1082.7,27156.0,3.6824e-05,5.7648,9.7516,32.101,42.614,71.822,1171.6,-0.027055,239.29,0.19218,liquid,CO2,C124389,carbon-dioxide,304.18,73.8,10.6,0.09433962264150944,0.9,14.670731707317074,0.00039033439999999997
273.76,1085.1,27163.0,3.6815e-05,5.7615,9.7564,32.086,42.619,71.811,1172.4,-0.027079,239.56,0.19231,liquid,CO2,C124389,carbon-dioxide,304.18,73.8,10.6,0.09433962264150944,0.9,14.703252032520325,0.00039023899999999996
273.76,1087.6,27170.0,3.6806e-05,5.7583,9.7612,32.07,42.624,71.799,1173.2,-0.027103,239.83,0.19245,liquid,CO2,C124389,carbon-dioxide,304.18,73.8,10.6,0.09433962264150944,0.9,14.737127371273711,0.00039014359999999996
273.76,1090.0,27177.0,3.6796e-05,5.755,9.766,32.054,42.629,71.788,1174.0,-0.027127,240.09,0.19258,liquid,CO2,C124389,carbon-dioxide,304.18,73.8,10.6,0.09433962264150944,0.9,14.769647696476966,0.00039003759999999997
273.76,1092.5,27183.0,3.6787e-05,5.7518,9.7707,32.039,42.634,71.777,1174.8,-0.027151,240.36,0.19271,liquid,CO2,C124389,carbon-dioxide,304.18,73.8,10.6,0.09433962264150944,0.9,14.803523035230352,0.00038994219999999996
273.76,1095.0,27190.0,3.6778e-05,5.7485,9.7755,32.023,42.64,71.766,1175.6,-0.027175,240.62,0.19285,liquid,CO2,C124389,carbon-dioxide,304.18,73.8,10.6,0.09433962264150944,0.9,14.83739837398374,0.00038984679999999996
273.76,1097.4,27197.0,3.6769e-05,5.7453,9.7803,32.008,42.645,71.755,1176.4,-0.027199,240.89,0.19298,liquid,CO2,C124389,carbon-dioxide,304.18,73.8,10.6,0.09433962264150944,0.9,14.869918699186993,0.00038975139999999995
273.76,1099.9,27204.0,3.676e-05,5.742,9.7851,31.992,42.65,71.744,1177.2,-0.027223,241.16,0.19311,liquid,CO2,C124389,carbon-dioxide,304.18,73.8,10.6,0.09433962264150944,0.9,14.903794037940381,0.000389656
273.76,1102.3,27211.0,3.675e-05,5.7388,9.7899,31.977,42.655,71.733,1178.0,-0.027246,241.42,0.19324,liquid,CO2,C124389,carbon-dioxide,304.18,73.8,10.6,0.09433962264150944,0.9,14.936314363143632,0.00038954999999999995
273.76,1104.8,27217.0,3.6741e-05,5.7356,9.7947,31.961,42.66,71.722,1178.8,-0.02727,241.69,0.19337,liquid,CO2,C124389,carbon-dioxide,304.18,73.8,10.6,0.09433962264150944,0.9,14.970189701897018,0.00038945459999999995
273.76,1107.2,27224.0,3.6732e-05,5.7324,9.7996,31.946,42.665,71.711,1179.6,-0.027293,241.95,0.19351,liquid,CO2,C124389,carbon-dioxide,304.18,73.8,10.6,0.09433962264150944,0.9,15.002710027100273,0.0003893592
273.76,1109.7,27231.0,3.6723e-05,5.7292,9.8044,31.931,42.67,71.7,1180.5,-0.027317,242.22,0.19364,liquid,CO2,C124389,carbon-dioxide,304.18,73.8,10.6,0.09433962264150944,0.9,15.036585365853659,0.0003892638
273.76,1112.2,27238.0,3.6714e-05,5.726,9.8092,31.915,42.675,71.69,1181.3,-0.02734,242.48,0.19377,liquid,CO2,C124389,carbon-dioxide,304.18,73.8,10.6,0.09433962264150944,0.9,15.070460704607047,0.0003891684
273.76,1114.6,27244.0,3.6705e-05,5.7228,9.814,31.9,42.68,71.679,1182.0,-0.027363,242.75,0.1939,liquid,CO2,C124389,carbon-dioxide,304.18,73.8,10.6,0.09433962264150944,0.9,15.102981029810298,0.000389073
273.76,1117.1,27251.0,3.6696e-05,5.7196,9.8188,31.885,42.685,71.668,1182.8,-0.027386,243.01,0.19403,liquid,CO2,C124389,carbon-dioxide,304.18,73.8,10.6,0.09433962264150944,0.9,15.136856368563684,0.0003889776
273.76,1119.5,27258.0,3.6687e-05,5.7164,9.8237,31.869,42.69,71.658,1183.6,-0.027409,243.28,0.19416,liquid,CO2,C124389,carbon-dioxide,304.18,73.8,10.6,0.09433962264150944,0.9,15.169376693766939,0.0003888822
273.76,1122.0,27264.0,3.6678e-05,5.7132,9.8285,31.854,42.695,71.647,1184.4,-0.027432,243.54,0.1943,liquid,CO2,C124389,carbon-dioxide,304.18,73.8,10.6,0.09433962264150944,0.9,15.203252032520325,0.00038878679999999996
273.76,1124.5,27271.0,3.6669e-05,5.7101,9.8333,31.839,42.7,71.636,1185.2,-0.027455,243.81,0.19443,liquid,CO2,C124389,carbon-dioxide,304.18,73.8,10.6,0.09433962264150944,0.9,15.237127371273713,0.00038869139999999996
273.76,1126.9,27278.0,3.666e-05,5.7069,9.8382,31.823,42.705,71.626,1186.0,-0.027478,244.07,0.19456,liquid,CO2,C124389,carbon-dioxide,304.18,73.8,10.6,0.09433962264150944,0.9,15.269647696476966,0.00038859599999999995
273.76,1129.4,27284.0,3.6651e-05,5.7037,9.843,31.808,42.71,71.615,1186.8,-0.0275,244.34,0.19469,liquid,CO2,C124389,carbon-dioxide,304.18,73.8,10.6,0.09433962264150944,0.9,15.303523035230354,0.00038850059999999994
273.76,1131.8,27291.0,3.6642e-05,5.7006,9.8478,31.793,42.715,71.605,1187.6,-0.027523,244.6,0.19482,liquid,CO2,C124389,carbon-dioxide,304.18,73.8,10.6,0.09433962264150944,0.9,15.336043360433605,0.00038840519999999994
273.76,1134.3,27298.0,3.6633e-05,5.6974,9.8527,31.778,42.72,71.595,1188.4,-0.027545,244.86,0.19495,liquid,CO2,C124389,carbon-dioxide,304.18,73.8,10.6,0.09433962264150944,0.9,15.369918699186991,0.0003883098
273.76,1136.7,27304.0,3.6624e-05,5.6943,9.8575,31.763,42.725,71.584,1189.2,-0.027567,245.13,0.19508,liquid,CO2,C124389,carbon-dioxide,304.18,73.8,10.6,0.09433962264150944,0.9,15.402439024390246,0.0003882144
273.76,1139.2,27311.0,3.6615e-05,5.6911,9.8624,31.747,42.73,71.574,1190.0,-0.02759,245.39,0.19521,liquid,CO2,C124389,carbon-dioxide,304.18,73.8,10.6,0.09433962264150944,0.9,15.436314363143632,0.000388119