Temperature (K),Pressure (bar),Density (mol/m3),Volume (m3/mol),Internal Energy (kJ/mol),Enthalpy (kJ/mol),Entropy (J/mol*K),Cv (J/mol*K),Cp (J/mol*K),Sound Spd. (m/s),Joule-Thomson (K/bar),Viscosity (uPa*s),Therm. Cond. (W/m*K),Phase,substance,substance_id,substance_name,Tc,Pc,rhoc,Vmc,Tr,Pr,Vmr
1164.6,1311.0,14506.0,6.8936e-05,62.038,71.075,110.49,40.852,62.464,902.08,0.068452,55.348,0.27784,supercritical,H2O,C7732185,water,647.0,220.64,17.9,0.0558659217877095,1.8000000000000003,5.9418056562726616,0.0012339544
1164.6,1318.4,14583.0,6.8574e-05,62.003,71.044,110.42,40.873,62.527,903.26,0.068009,55.425,0.27882,supercritical,H2O,C7732185,water,647.0,220.64,17.9,0.0558659217877095,1.8000000000000003,5.975344452501814,0.0012274745999999999
1164.6,1325.7,14659.0,6.8217e-05,61.969,71.013,110.35,40.893,62.589,904.44,0.067569,55.501,0.27979,supercritical,H2O,C7732185,water,647.0,220.64,17.9,0.0558659217877095,1.8000000000000003,6.008430021754895,0.0012210843
1164.6,1333.0,14735.0,6.7864e-05,61.935,70.982,110.28,40.914,62.65,905.62,0.06713,55.577,0.28077,supercritical,H2O,C7732185,water,647.0,220.64,17.9,0.0558659217877095,1.8000000000000003,6.041515591007977,0.0012147656
1164.6,1340.4,14811.0,6.7515e-05,61.901,70.951,110.21,40.934,62.711,906.81,0.066694,55.653,0.28174,supercritical,H2O,C7732185,water,647.0,220.64,17.9,0.0558659217877095,1.8000000000000003,6.075054387237129,0.0012085185
1164.6,1347.7,14887.0,6.7171e-05,61.867,70.92,110.14,40.955,62.771,908.01,0.066259,55.729,0.28272,supercritical,H2O,C7732185,water,647.0,220.64,17.9,0.0558659217877095,1.8000000000000003,6.108139956490211,0.0012023608999999998
1164.6,1355.1,14963.0,6.6831e-05,61.833,70.89,110.08,40.975,62.83,909.21,0.065826,55.806,0.28369,supercritical,H2O,C7732185,water,647.0,220.64,17.9,0.0558659217877095,1.8000000000000003,6.141678752719362,0.0011962748999999999
1164.6,1362.4,15039.0,6.6495e-05,61.8,70.859,110.01,40.995,62.888,910.42,0.065395,55.882,0.28466,supercritical,H2O,C7732185,water,647.0,220.64,17.9,0.0558659217877095,1.8000000000000003,6.174764321972445,0.0011902605
1164.6,1369.8,15114.0,6.6163e-05,61.766,70.829,109.94,41.015,62.946,911.63,0.064966,55.958,0.28563,supercritical,H2O,C7732185,water,647.0,220.64,17.9,0.0558659217877095,1.8000000000000003,6.208303118201596,0.0011843176999999999
1164.6,1377.1,15189.0,6.5836e-05,61.733,70.799,109.87,41.035,63.003,912.85,0.064539,56.034,0.28659,supercritical,H2O,C7732185,water,647.0,220.64,17.9,0.0558659217877095,1.8000000000000003,6.241388687454677,0.0011784643999999999
1164.6,1384.5,15264.0,6.5512e-05,61.699,70.769,109.81,41.054,63.06,914.08,0.064114,56.11,0.28756,supercritical,H2O,C7732185,water,647.0,220.64,17.9,0.0558659217877095,1.8000000000000003,6.274927483683829,0.0011726648
1164.6,1391.8,15339.0,6.5192e-05,61.666,70.74,109.74,41.074,63.115,915.31,0.063691,56.186,0.28852,supercritical,H2O,C7732185,water,647.0,220.64,17.9,0.0558659217877095,1.8000000000000003,6.308013052936911,0.0011669367999999998
1164.6,1399.2,15414.0,6.4876e-05,61.633,70.71,109.67,41.093,63.17,916.54,0.063269,56.262,0.28949,supercritical,H2O,C7732185,water,647.0,220.64,17.9,0.0558659217877095,1.8000000000000003,6.341551849166063,0.0011612804
1164.6,1406.5,15489.0,6.4564e-05,61.6,70.681,109.61,41.113,63.225,917.78,0.06285,56.338,0.29045,supercritical,H2O,C7732185,water,647.0,220.64,17.9,0.0558659217877095,1.8000000000000003,6.3746374184191446,0.0011556956
1164.6,1413.9,15563.0,6.4255e-05,61.567,70.652,109.54,41.132,63.278,919.03,0.062433,56.414,0.29141,supercritical,H2O,C7732185,water,647.0,220.64,17.9,0.0558659217877095,1.8000000000000003,6.408176214648297,0.0011501645
1164.6,1421.2,15637.0,6.395e-05,61.534,70.623,109.48,41.151,63.331,920.29,0.062017,56.49,0.29236,supercritical,H2O,C7732185,water,647.0,220.64,17.9,0.0558659217877095,1.8000000000000003,6.441261783901378,0.0011447049999999998
1164.6,1428.6,15711.0,6.3649e-05,61.502,70.594,109.41,41.17,63.384,921.54,0.061604,56.566,0.29332,supercritical,H2O,C7732185,water,647.0,220.64,17.9,0.0558659217877095,1.8000000000000003,6.4748005801305295,0.0011393171
1164.6,1435.9,15785.0,6.3351e-05,61.469,70.566,109.35,41.189,63.435,922.81,0.061192,56.642,0.29427,supercritical,H2O,C7732185,water,647.0,220.64,17.9,0.0558659217877095,1.8000000000000003,6.507886149383612,0.0011339828999999998
1164.6,1443.3,15859.0,6.3057e-05,61.436,70.537,109.28,41.208,63.486,924.08,0.060783,56.718,0.29523,supercritical,H2O,C7732185,water,647.0,220.64,17.9,0.0558659217877095,1.8000000000000003,6.541424945612763,0.0011287203
1164.6,1450.6,15932.0,6.2766e-05,61.404,70.509,109.22,41.226,63.537,925.35,0.060375,56.793,0.29618,supercritical,H2O,C7732185,water,647.0,220.64,17.9,0.0558659217877095,1.8000000000000003,6.574510514865845,0.0011235114
1164.6,1458.0,16006.0,6.2478e-05,61.372,70.481,109.15,41.245,63.586,926.63,0.059969,56.869,0.29713,supercritical,H2O,C7732185,water,647.0,220.64,17.9,0.0558659217877095,1.8000000000000003,6.608049311094997,0.0011183561999999999
1164.6,1465.3,16079.0,6.2194e-05,61.339,70.453,109.09,41.263,63.635,927.91,0.059565,56.945,0.29807,supercritical,H2O,C7732185,water,647.0,220.64,17.9,0.0558659217877095,1.8000000000000003,6.641134880348078,0.0011132725999999998
1164.6,1472.7,16152.0,6.1913e-05,61.307,70.425,109.03,41.282,63.684,929.2,0.059163,57.021,0.29902,supercritical,H2O,C7732185,water,647.0,220.64,17.9,0.0558659217877095,1.8000000000000003,6.67467367657723,0.0011082427
1164.6,1480.0,16225.0,6.1635e-05,61.275,70.397,108.97,41.3,63.731,930.5,0.058764,57.096,0.29996,supercritical,H2O,C7732185,water,647.0,220.64,17.9,0.0558659217877095,1.8000000000000003,6.707759245830312,0.0011032665
1164.6,1487.4,16297.0,6.136e-05,61.244,70.37,108.9,41.318,63.778,931.8,0.058366,57.172,0.30091,supercritical,H2O,C7732185,water,647.0,220.64,17.9,0.0558659217877095,1.8000000000000003,6.741298042059464,0.0010983439999999998
1164.6,1494.7,16370.0,6.1089e-05,61.212,70.343,108.84,41.336,63.825,933.1,0.05797,57.247,0.30185,supercritical,H2O,C7732185,water,647.0,220.64,17.9,0.0558659217877095,1.8000000000000003,6.774383611312546,0.0010934930999999999
1164.6,1502.1,16442.0,6.0821e-05,61.18,70.316,108.78,41.354,63.871,934.41,0.057575,57.323,0.30278,supercritical,H2O,C7732185,water,647.0,220.64,17.9,0.0558659217877095,1.8000000000000003,6.807922407541697,0.0010886958999999999
1164.6,1509.4,16514.0,6.0555e-05,61.148,70.289,108.72,41.372,63.916,935.73,0.057183,57.398,0.30372,supercritical,H2O,C7732185,water,647.0,220.64,17.9,0.0558659217877095,1.8000000000000003,6.84100797679478,0.0010839345
1164.6,1516.8,16586.0,6.0293e-05,61.117,70.262,108.66,41.39,63.96,937.04,0.056793,57.474,0.30466,supercritical,H2O,C7732185,water,647.0,220.64,17.9,0.0558659217877095,1.8000000000000003,6.874546773023931,0.0010792446999999998
1164.6,1524.1,16657.0,6.0033e-05,61.086,70.235,108.6,41.407,64.004,938.37,0.056405,57.549,0.30559,supercritical,H2O,C7732185,water,647.0,220.64,17.9,0.0558659217877095,1.8000000000000003,6.9076323422770125,0.0010745906999999999
1164.6,1531.5,16729.0,5.9777e-05,61.054,70.209,108.54,41.425,64.048,939.7,0.056019,57.625,0.30652,supercritical,H2O,C7732185,water,647.0,220.64,17.9,0.0558659217877095,1.8000000000000003,6.9411711385061645,0.0010700083
1164.6,1538.8,16800.0,5.9523e-05,61.023,70.183,108.48,41.442,64.09,941.03,0.055634,57.7,0.30745,supercritical,H2O,C7732185,water,647.0,220.64,17.9,0.0558659217877095,1.8000000000000003,6.974256707759246,0.0010654617
1164.6,1546.1,16871.0,5.9272e-05,60.992,70.157,108.42,41.459,64.132,942.37,0.055252,57.775,0.30838,supercritical,H2O,C7732185,water,647.0,220.64,17.9,0.0558659217877095,1.8000000000000003,7.007342277012328,0.0010609687999999999
1164.6,1553.5,16942.0,5.9024e-05,60.961,70.131,108.36,41.477,64.174,943.71,0.054871,57.851,0.3093,supercritical,H2O,C7732185,water,647.0,220.64,17.9,0.0558659217877095,1.8000000000000003,7.04088107324148,0.0010565296
1164.6,1560.8,17013.0,5.8778e-05,60.93,70.105,108.3,41.494,64.215,945.06,0.054493,57.926,0.31023,supercritical,H2O,C7732185,water,647.0,220.64,17.9,0.0558659217877095,1.8000000000000003,7.073966642494561,0.0010521261999999999
1164.6,1568.2,17084.0,5.8535e-05,60.9,70.079,108.24,41.511,64.255,946.41,0.054116,58.001,0.31115,supercritical,H2O,C7732185,water,647.0,220.64,17.9,0.0558659217877095,1.8000000000000003,7.107505438723713,0.0010477765
1164.6,1575.5,17154.0,5.8295e-05,60.869,70.054,108.18,41.528,64.295,947.76,0.053742,58.076,0.31207,supercritical,H2O,C7732185,water,647.0,220.64,17.9,0.0558659217877095,1.8000000000000003,7.140591007976795,0.0010434804999999998
1164.6,1582.9,17224.0,5.8057e-05,60.838,70.028,108.12,41.544,64.334,949.12,0.053369,58.151,0.31299,supercritical,H2O,C7732185,water,647.0,220.64,17.9,0.0558659217877095,1.8000000000000003,7.174129804205947,0.0010392203
1164.6,1590.2,17294.0,5.7822e-05,60.808,70.003,108.06,41.561,64.372,950.49,0.052998,58.226,0.31391,supercritical,H2O,C7732185,water,647.0,220.64,17.9,0.0558659217877095,1.8000000000000003,7.207215373459029,0.0010350138
1164.6,1597.6,17364.0,5.759e-05,60.778,69.978,108.0,41.578,64.41,951.85,0.05263,58.301,0.31482,supercritical,H2O,C7732185,water,647.0,220.64,17.9,0.0558659217877095,1.8000000000000003,7.24075416968818,0.0010308609999999999
1164.6,1604.9,17434.0,5.736e-05,60.748,69.953,107.95,41.594,64.448,953.23,0.052263,58.376,0.31573,supercritical,H2O,C7732185,water,647.0,220.64,17.9,0.0558659217877095,1.8000000000000003,7.273839738941263,0.001026744
1164.6,1612.3,17503.0,5.7132e-05,60.717,69.929,107.89,41.611,64.484,954.6,0.051898,58.451,0.31664,supercritical,H2O,C7732185,water,647.0,220.64,17.9,0.0558659217877095,1.8000000000000003,7.307378535170414,0.0010226628
1164.6,1619.6,17573.0,5.6907e-05,60.687,69.904,107.83,41.627,64.521,955.98,0.051535,58.526,0.31755,supercritical,H2O,C7732185,water,647.0,220.64,17.9,0.0558659217877095,1.8000000000000003,7.3404641044234955,0.0010186353
1164.6,1627.0,17642.0,5.6684e-05,60.657,69.88,107.78,41.643,64.556,957.37,0.051174,58.601,0.31846,supercritical,H2O,C7732185,water,647.0,220.64,17.9,0.0558659217877095,1.8000000000000003,7.3740029006526475,0.0010146436
1164.6,1634.3,17711.0,5.6463e-05,60.628,69.856,107.72,41.659,64.591,958.75,0.050815,58.676,0.31937,supercritical,H2O,C7732185,water,647.0,220.64,17.9,0.0558659217877095,1.8000000000000003,7.407088469905729,0.0010106877
1164.6,1641.7,17779.0,5.6245e-05,60.598,69.832,107.66,41.675,64.626,960.15,0.050458,58.751,0.32027,supercritical,H2O,C7732185,water,647.0,220.64,17.9,0.0558659217877095,1.8000000000000003,7.440627266134881,0.0010067855
1164.6,1649.0,17848.0,5.6029e-05,60.568,69.808,107.61,41.691,64.66,961.54,0.050102,58.825,0.32117,supercritical,H2O,C7732185,water,647.0,220.64,17.9,0.0558659217877095,1.8000000000000003,7.473712835387963,0.0010029191
1164.6,1656.4,17916.0,5.5816e-05,60.539,69.784,107.55,41.707,64.694,962.94,0.049749,58.9,0.32207,supercritical,H2O,C7732185,water,647.0,220.64,17.9,0.0558659217877095,1.8000000000000003,7.507251631617114,0.0009991064
1164.6,1663.7,17984.0,5.5604e-05,60.509,69.76,107.5,41.723,64.727,964.34,0.049398,58.975,0.32297,supercritical,H2O,C7732185,water,647.0,220.64,17.9,0.0558659217877095,1.8000000000000003,7.540337200870196,0.0009953116
1164.6,1671.1,18052.0,5.5395e-05,60.48,69.737,107.44,41.739,64.759,965.75,0.049048,59.049,0.32386,supercritical,H2O,C7732185,water,647.0,220.64,17.9,0.0558659217877095,1.8000000000000003,7.573875997099347,0.0009915705
1164.6,1678.4,18120.0,5.5188e-05,60.451,69.714,107.39,41.754,64.791,967.16,0.048701,59.124,0.32476,supercritical,H2O,C7732185,water,647.0,220.64,17.9,0.0558659217877095,1.8000000000000003,7.60696156635243,0.0009878652
1164.6,1685.8,18188.0,5.4983e-05,60.422,69.691,107.33,41.77,64.822,968.57,0.048355,59.198,0.32565,supercritical,H2O,C7732185,water,647.0,220.64,17.9,0.0558659217877095,1.8000000000000003,7.640500362581581,0.0009841957
1164.6,1693.1,18255.0,5.478e-05,60.393,69.668,107.28,41.785,64.853,969.99,0.048012,59.273,0.32654,supercritical,H2O,C7732185,water,647.0,220.64,17.9,0.0558659217877095,1.8000000000000003,7.673585931834663,0.000980562
1164.6,1700.5,18322.0,5.4579e-05,60.364,69.645,107.22,41.801,64.884,971.41,0.04767,59.347,0.32743,supercritical,H2O,C7732185,water,647.0,220.64,17.9,0.0558659217877095,1.8000000000000003,7.707124728063815,0.0009769641
1164.6,1707.8,18389.0,5.438e-05,60.335,69.622,107.17,41.816,64.914,972.84,0.04733,59.422,0.32831,supercritical,H2O,C7732185,water,647.0,220.64,17.9,0.0558659217877095,1.8000000000000003,7.740210297316897,0.000973402
1164.6,1715.2,18456.0,5.4183e-05,60.306,69.6,107.12,41.831,64.943,974.26,0.046992,59.496,0.3292,supercritical,H2O,C7732185,water,647.0,220.64,17.9,0.0558659217877095,1.8000000000000003,7.773749093546049,0.0009698757
1164.6,1722.5,18523.0,5.3988e-05,60.278,69.577,107.06,41.846,64.972,975.69,0.046656,59.57,0.33008,supercritical,H2O,C7732185,water,647.0,220.64,17.9,0.0558659217877095,1.8000000000000003,7.8068346627991305,0.0009663851999999999
1164.6,1729.9,18589.0,5.3795e-05,60.249,69.555,107.01,41.861,65.0,977.13,0.046322,59.645,0.33096,supercritical,H2O,C7732185,water,647.0,220.64,17.9,0.0558659217877095,1.8000000000000003,7.8403734590282825,0.0009629305
1164.6,1737.2,18655.0,5.3604e-05,60.221,69.533,106.96,41.876,65.028,978.56,0.04599,59.719,0.33184,supercritical,H2O,C7732185,water,647.0,220.64,17.9,0.0558659217877095,1.8000000000000003,7.873459028281364,0.0009595115999999999
1164.6,1744.6,18721.0,5.3415e-05,60.193,69.511,106.9,41.891,65.056,980.0,0.04566,59.793,0.33272,supercritical,H2O,C7732185,water,647.0,220.64,17.9,0.0558659217877095,1.8000000000000003,7.906997824510515,0.0009561284999999999
1164.6,1751.9,18787.0,5.3228e-05,60.164,69.489,106.85,41.906,65.083,981.44,0.045331,59.867,0.33359,supercritical,H2O,C7732185,water,647.0,220.64,17.9,0.0558659217877095,1.8000000000000003,7.940083393763597,0.0009527811999999999
1164.6,1759.3,18853.0,5.3043e-05,60.136,69.468,106.8,41.921,65.11,982.89,0.045005,59.941,0.33446,supercritical,H2O,C7732185,water,647.0,220.64,17.9,0.0558659217877095,1.8000000000000003,7.973622189992748,0.0009494696999999999
1164.6,1766.6,18918.0,5.2859e-05,60.108,69.446,106.75,41.935,65.136,984.34,0.04468,60.015,0.33533,supercritical,H2O,C7732185,water,647.0,220.64,17.9,0.0558659217877095,1.8000000000000003,8.006707759245831,0.0009461761
1164.6,1773.9,18984.0,5.2677e-05,60.08,69.425,106.7,41.95,65.161,985.79,0.044357,60.089,0.3362,supercritical,H2O,C7732185,water,647.0,220.64,17.9,0.0558659217877095,1.8000000000000003,8.039793328498913,0.0009429182999999999
1164.6,1781.3,19049.0,5.2497e-05,60.053,69.404,106.64,41.964,65.187,987.24,0.044037,60.163,0.33707,supercritical,H2O,C7732185,water,647.0,220.64,17.9,0.0558659217877095,1.8000000000000003,8.073332124728065,0.0009396963
1164.6,1788.6,19114.0,5.2319e-05,60.025,69.383,106.59,41.979,65.211,988.7,0.043718,60.237,0.33793,supercritical,H2O,C7732185,water,647.0,220.64,17.9,0.0558659217877095,1.8000000000000003,8.106417693981145,0.0009365100999999999
1164.6,1796.0,19178.0,5.2142e-05,59.997,69.362,106.54,41.993,65.236,990.16,0.043401,60.311,0.3388,supercritical,H2O,C7732185,water,647.0,220.64,17.9,0.0558659217877095,1.8000000000000003,8.139956490210297,0.0009333418
1164.6,1803.3,19243.0,5.1967e-05,59.97,69.341,106.49,42.007,65.26,991.62,0.043085,60.385,0.33966,supercritical,H2O,C7732185,water,647.0,220.64,17.9,0.0558659217877095,1.8000000000000003,8.173042059463379,0.0009302092999999999
1164.6,1810.7,19307.0,5.1794e-05,59.942,69.321,106.44,42.021,65.283,993.08,0.042772,60.458,0.34052,supercritical,H2O,C7732185,water,647.0,220.64,17.9,0.0558659217877095,1.8000000000000003,8.20658085569253,0.0009271125999999999
1164.6,1818.0,19371.0,5.1623e-05,59.915,69.3,106.39,42.035,65.306,994.55,0.042461,60.532,0.34138,supercritical,H2O,C7732185,water,647.0,220.64,17.9,0.0558659217877095,1.8000000000000003,8.239666424945613,0.0009240516999999999
1164.6,1825.4,19435.0,5.1453e-05,59.888,69.28,106.34,42.049,65.329,996.02,0.042151,60.606,0.34223,supercritical,H2O,C7732185,water,647.0,220.64,17.9,0.0558659217877095,1.8000000000000003,8.273205221174765,0.0009210086999999999
1164.6,1832.7,19499.0,5.1284e-05,59.861,69.26,106.29,42.063,65.351,997.49,0.041843,60.679,0.34309,supercritical,H2O,C7732185,water,647.0,220.64,17.9,0.0558659217877095,1.8000000000000003,8.306290790427846,0.0009179835999999999
1164.6,1840.1,19563.0,5.1118e-05,59.834,69.24,106.24,42.077,65.373,998.96,0.041537,60.753,0.34394,supercritical,H2O,C7732185,water,647.0,220.64,17.9,0.0558659217877095,1.8000000000000003,8.339829586656998,0.0009150122
1164.6,1847.4,19626.0,5.0952e-05,59.807,69.22,106.19,42.091,65.394,1000.4,0.041233,60.827,0.34479,supercritical,H2O,C7732185,water,647.0,220.64,17.9,0.0558659217877095,1.8000000000000003,8.37291515591008,0.0009120408
1164.6,1854.8,19689.0,5.0789e-05,59.78,69.2,106.14,42.105,65.415,1001.9,0.040931,60.9,0.34564,supercritical,H2O,C7732185,water,647.0,220.64,17.9,0.0558659217877095,1.8000000000000003,8.406453952139232,0.0009091230999999999
1164.6,1862.1,19752.0,5.0627e-05,59.753,69.18,106.09,42.118,65.436,1003.4,0.040631,60.974,0.34648,supercritical,H2O,C7732185,water,647.0,220.64,17.9,0.0558659217877095,1.8000000000000003,8.439539521392314,0.0009062232999999999
1164.6,1869.5,19815.0,5.0466e-05,59.726,69.161,106.05,42.132,65.456,1004.9,0.040332,61.047,0.34733,supercritical,H2O,C7732185,water,647.0,220.64,17.9,0.0558659217877095,1.8000000000000003,8.473078317621466,0.0009033413999999999
1164.6,1876.8,19878.0,5.0307e-05,59.7,69.142,106.0,42.145,65.476,1006.4,0.040035,61.12,0.34817,supercritical,H2O,C7732185,water,647.0,220.64,17.9,0.0558659217877095,1.8000000000000003,8.506163886874548,0.0009004953
1164.6,1884.2,19940.0,5.0149e-05,59.673,69.123,105.95,42.159,65.496,1007.8,0.03974,61.194,0.34901,supercritical,H2O,C7732185,water,647.0,220.64,17.9,0.0558659217877095,1.8000000000000003,8.5397026831037,0.0008976670999999999
1164.6,1891.5,20003.0,4.9993e-05,59.647,69.103,105.9,42.172,65.515,1009.3,0.039447,61.267,0.34985,supercritical,H2O,C7732185,water,647.0,220.64,17.9,0.0558659217877095,1.8000000000000003,8.57278825235678,0.0008948747
1164.6,1898.9,20065.0,4.9839e-05,59.621,69.085,105.85,42.185,65.534,1010.8,0.039156,61.34,0.35069,supercritical,H2O,C7732185,water,647.0,220.64,17.9,0.0558659217877095,1.8000000000000003,8.606327048585932,0.0008921180999999999
1164.6,1906.2,20127.0,4.9685e-05,59.595,69.066,105.81,42.198,65.552,1012.3,0.038866,61.413,0.35152,supercritical,H2O,C7732185,water,647.0,220.64,17.9,0.0558659217877095,1.8000000000000003,8.639412617839014,0.0008893615
1164.6,1913.6,20188.0,4.9533e-05,59.569,69.047,105.76,42.212,65.57,1013.8,0.038578,61.486,0.35236,supercritical,H2O,C7732185,water,647.0,220.64,17.9,0.0558659217877095,1.8000000000000003,8.672951414068166,0.0008866407
1164.6,1920.9,20250.0,4.9383e-05,59.543,69.029,105.71,42.225,65.588,1015.3,0.038292,61.56,0.35319,supercritical,H2O,C7732185,water,647.0,220.64,17.9,0.0558659217877095,1.8000000000000003,8.706036983321248,0.0008839556999999999
1164.6,1928.3,20311.0,4.9233e-05,59.517,69.01,105.66,42.238,65.606,1016.8,0.038008,61.633,0.35402,supercritical,H2O,C7732185,water,647.0,220.64,17.9,0.0558659217877095,1.8000000000000003,8.7395757795504,0.0008812707
1164.6,1935.6,20373.0,4.9086e-05,59.491,68.992,105.62,42.251,65.623,1018.3,0.037726,61.706,0.35485,supercritical,H2O,C7732185,water,647.0,220.64,17.9,0.0558659217877095,1.8000000000000003,8.772661348803481,0.0008786393999999999
1164.6,1943.0,20434.0,4.8939e-05,59.465,68.974,105.57,42.264,65.639,1019.8,0.037445,61.779,0.35567,supercritical,H2O,C7732185,water,647.0,220.64,17.9,0.0558659217877095,1.8000000000000003,8.806200145032633,0.0008760081
1164.6,1950.3,20494.0,4.8794e-05,59.439,68.956,105.53,42.276,65.656,1021.3,0.037166,61.852,0.3565,supercritical,H2O,C7732185,water,647.0,220.64,17.9,0.0558659217877095,1.8000000000000003,8.839285714285715,0.0008734125999999999