Temperature (K),Pressure (bar),Density (mol/m3),Volume (m3/mol),Internal Energy (kJ/mol),Enthalpy (kJ/mol),Entropy (J/mol*K),Cv (J/mol*K),Cp (J/mol*K),Sound Spd. (m/s),Joule-Thomson (K/bar),Viscosity (uPa*s),Therm. Cond. (W/m*K),Phase,substance,substance_id,substance_name,Tc,Pc,rhoc,Vmc,Tr,Pr,Vmr
334.6,450.88,20659.0,4.8405e-05,11.304,13.487,52.898,39.938,78.874,673.1,0.0083432,95.202,0.10883,supercritical,CO2,C124389,carbon-dioxide,304.18,73.8,10.6,0.09433962264150944,1.1,6.109485094850949,0.000513093
334.6,453.33,20683.0,4.8348e-05,11.293,13.485,52.858,39.941,78.779,674.91,0.0080241,95.466,0.10906,supercritical,CO2,C124389,carbon-dioxide,304.18,73.8,10.6,0.09433962264150944,1.1,6.142682926829268,0.0005124887999999999
334.6,455.79,20707.0,4.8292e-05,11.282,13.484,52.818,39.944,78.685,676.71,0.0077089,95.729,0.10928,supercritical,CO2,C124389,carbon-dioxide,304.18,73.8,10.6,0.09433962264150944,1.1,6.176016260162602,0.0005118951999999999
334.6,458.25,20731.0,4.8236e-05,11.272,13.482,52.778,39.947,78.592,678.51,0.0073977,95.991,0.1095,supercritical,CO2,C124389,carbon-dioxide,304.18,73.8,10.6,0.09433962264150944,1.1,6.2093495934959355,0.0005113015999999999
334.6,460.71,20755.0,4.8181e-05,11.261,13.481,52.739,39.951,78.501,680.29,0.0070904,96.252,0.10972,supercritical,CO2,C124389,carbon-dioxide,304.18,73.8,10.6,0.09433962264150944,1.1,6.242682926829268,0.0005107185999999999
334.6,463.17,20779.0,4.8126e-05,11.25,13.479,52.699,39.954,78.41,682.07,0.0067869,96.513,0.10995,supercritical,CO2,C124389,carbon-dioxide,304.18,73.8,10.6,0.09433962264150944,1.1,6.276016260162602,0.0005101356
334.6,465.63,20802.0,4.8072e-05,11.24,13.478,52.66,39.957,78.321,683.84,0.006487,96.773,0.11017,supercritical,CO2,C124389,carbon-dioxide,304.18,73.8,10.6,0.09433962264150944,1.1,6.309349593495935,0.0005095632
334.6,468.08,20826.0,4.8018e-05,11.229,13.477,52.621,39.96,78.232,685.6,0.0061908,97.032,0.11039,supercritical,CO2,C124389,carbon-dioxide,304.18,73.8,10.6,0.09433962264150944,1.1,6.342547425474255,0.0005089907999999999
334.6,470.54,20849.0,4.7964e-05,11.219,13.476,52.583,39.963,78.145,687.36,0.0058982,97.29,0.11061,supercritical,CO2,C124389,carbon-dioxide,304.18,73.8,10.6,0.09433962264150944,1.1,6.375880758807589,0.0005084183999999999
334.6,473.0,20872.0,4.7911e-05,11.208,13.475,52.544,39.967,78.059,689.11,0.0056091,97.548,0.11082,supercritical,CO2,C124389,carbon-dioxide,304.18,73.8,10.6,0.09433962264150944,1.1,6.409214092140922,0.0005078566
334.6,475.46,20895.0,4.7859e-05,11.198,13.474,52.506,39.97,77.974,690.85,0.0053234,97.805,0.11104,supercritical,CO2,C124389,carbon-dioxide,304.18,73.8,10.6,0.09433962264150944,1.1,6.442547425474254,0.0005073053999999999
334.6,477.92,20917.0,4.7807e-05,11.188,13.473,52.468,39.974,77.889,692.58,0.0050411,98.061,0.11126,supercritical,CO2,C124389,carbon-dioxide,304.18,73.8,10.6,0.09433962264150944,1.1,6.475880758807588,0.0005067542
334.6,480.38,20940.0,4.7755e-05,11.178,13.472,52.43,39.977,77.806,694.31,0.0047621,98.317,0.11147,supercritical,CO2,C124389,carbon-dioxide,304.18,73.8,10.6,0.09433962264150944,1.1,6.509214092140922,0.000506203
334.6,482.83,20963.0,4.7704e-05,11.167,13.471,52.392,39.98,77.724,696.02,0.0044864,98.572,0.11169,supercritical,CO2,C124389,carbon-dioxide,304.18,73.8,10.6,0.09433962264150944,1.1,6.542411924119241,0.0005056624
334.6,485.29,20985.0,4.7653e-05,11.157,13.47,52.354,39.984,77.643,697.74,0.0042138,98.826,0.1119,supercritical,CO2,C124389,carbon-dioxide,304.18,73.8,10.6,0.09433962264150944,1.1,6.575745257452575,0.0005051217999999999
334.6,487.75,21007.0,4.7603e-05,11.147,13.469,52.317,39.987,77.562,699.44,0.0039444,99.079,0.11212,supercritical,CO2,C124389,carbon-dioxide,304.18,73.8,10.6,0.09433962264150944,1.1,6.609078590785908,0.0005045917999999999
334.6,490.21,21029.0,4.7553e-05,11.137,13.468,52.28,39.991,77.483,701.14,0.0036781,99.332,0.11233,supercritical,CO2,C124389,carbon-dioxide,304.18,73.8,10.6,0.09433962264150944,1.1,6.642411924119241,0.0005040617999999999
334.6,492.67,21051.0,4.7503e-05,11.127,13.468,52.243,39.994,77.404,702.83,0.0034148,99.584,0.11254,supercritical,CO2,C124389,carbon-dioxide,304.18,73.8,10.6,0.09433962264150944,1.1,6.675745257452575,0.0005035318
334.6,495.13,21073.0,4.7454e-05,11.118,13.467,52.206,39.998,77.327,704.51,0.0031545,99.836,0.11276,supercritical,CO2,C124389,carbon-dioxide,304.18,73.8,10.6,0.09433962264150944,1.1,6.709078590785908,0.0005030124
334.6,497.58,21095.0,4.7405e-05,11.108,13.467,52.17,40.001,77.25,706.19,0.0028972,100.09,0.11297,supercritical,CO2,C124389,carbon-dioxide,304.18,73.8,10.6,0.09433962264150944,1.1,6.742276422764228,0.0005024929999999999
334.6,500.04,21116.0,4.7357e-05,11.098,13.466,52.133,40.005,77.174,707.86,0.0026427,100.34,0.11318,supercritical,CO2,C124389,carbon-dioxide,304.18,73.8,10.6,0.09433962264150944,1.1,6.775609756097562,0.0005019842
334.6,502.5,21138.0,4.7309e-05,11.088,13.466,52.097,40.009,77.099,709.52,0.002391,100.59,0.11339,supercritical,CO2,C124389,carbon-dioxide,304.18,73.8,10.6,0.09433962264150944,1.1,6.808943089430895,0.0005014754
334.6,504.96,21159.0,4.7261e-05,11.079,13.465,52.061,40.012,77.025,711.18,0.0021421,100.84,0.1136,supercritical,CO2,C124389,carbon-dioxide,304.18,73.8,10.6,0.09433962264150944,1.1,6.842276422764227,0.0005009665999999999
334.6,507.42,21180.0,4.7214e-05,11.069,13.465,52.025,40.016,76.952,712.83,0.0018959,101.08,0.11381,supercritical,CO2,C124389,carbon-dioxide,304.18,73.8,10.6,0.09433962264150944,1.1,6.875609756097561,0.0005004683999999999
334.6,509.88,21201.0,4.7167e-05,11.059,13.464,51.99,40.02,76.879,714.47,0.0016525,101.33,0.11401,supercritical,CO2,C124389,carbon-dioxide,304.18,73.8,10.6,0.09433962264150944,1.1,6.9089430894308945,0.0004999701999999999
334.6,512.33,21222.0,4.712e-05,11.05,13.464,51.954,40.023,76.807,716.11,0.0014116,101.58,0.11422,supercritical,CO2,C124389,carbon-dioxide,304.18,73.8,10.6,0.09433962264150944,1.1,6.942140921409215,0.000499472
334.6,514.79,21243.0,4.7074e-05,11.04,13.464,51.919,40.027,76.736,717.74,0.0011734,101.83,0.11443,supercritical,CO2,C124389,carbon-dioxide,304.18,73.8,10.6,0.09433962264150944,1.1,6.975474254742547,0.0004989844
334.6,517.25,21264.0,4.7028e-05,11.031,13.464,51.884,40.031,76.666,719.37,0.00093772,102.07,0.11463,supercritical,CO2,C124389,carbon-dioxide,304.18,73.8,10.6,0.09433962264150944,1.1,7.008807588075881,0.0004984967999999999
334.6,519.71,21284.0,4.6983e-05,11.022,13.463,51.849,40.035,76.596,720.98,0.00070455,102.32,0.11484,supercritical,CO2,C124389,carbon-dioxide,304.18,73.8,10.6,0.09433962264150944,1.1,7.0421409214092145,0.0004980198
334.6,522.17,21305.0,4.6937e-05,11.012,13.463,51.814,40.038,76.527,722.6,0.00047385,102.56,0.11504,supercritical,CO2,C124389,carbon-dioxide,304.18,73.8,10.6,0.09433962264150944,1.1,7.075474254742547,0.0004975321999999999
334.6,524.63,21325.0,4.6893e-05,11.003,13.463,51.779,40.042,76.459,724.2,0.00024558,102.81,0.11525,supercritical,CO2,C124389,carbon-dioxide,304.18,73.8,10.6,0.09433962264150944,1.1,7.108807588075881,0.0004970657999999999
334.6,527.08,21346.0,4.6848e-05,10.994,13.463,51.745,40.046,76.392,725.8,1.9707e-05,103.05,0.11545,supercritical,CO2,C124389,carbon-dioxide,304.18,73.8,10.6,0.09433962264150944,1.1,7.142005420054201,0.0004965888
334.6,529.54,21366.0,4.6804e-05,10.985,13.463,51.71,40.05,76.325,727.4,-0.00020381,103.29,0.11566,supercritical,CO2,C124389,carbon-dioxide,304.18,73.8,10.6,0.09433962264150944,1.1,7.175338753387534,0.0004961224
334.6,532.0,21386.0,4.676e-05,10.976,13.463,51.676,40.054,76.259,728.99,-0.00042502,103.54,0.11586,supercritical,CO2,C124389,carbon-dioxide,304.18,73.8,10.6,0.09433962264150944,1.1,7.208672086720868,0.0004956559999999999
334.6,534.46,21406.0,4.6716e-05,10.967,13.463,51.642,40.058,76.194,730.57,-0.00064395,103.78,0.11606,supercritical,CO2,C124389,carbon-dioxide,304.18,73.8,10.6,0.09433962264150944,1.1,7.242005420054201,0.0004951895999999999
334.6,536.92,21426.0,4.6673e-05,10.958,13.464,51.608,40.061,76.129,732.15,-0.00086063,104.02,0.11626,supercritical,CO2,C124389,carbon-dioxide,304.18,73.8,10.6,0.09433962264150944,1.1,7.275338753387533,0.0004947338
334.6,539.38,21445.0,4.663e-05,10.949,13.464,51.574,40.065,76.065,733.72,-0.0010751,104.26,0.11646,supercritical,CO2,C124389,carbon-dioxide,304.18,73.8,10.6,0.09433962264150944,1.1,7.308672086720867,0.0004942779999999999
334.6,541.83,21465.0,4.6587e-05,10.94,13.464,51.541,40.069,76.002,735.28,-0.0012874,104.5,0.11666,supercritical,CO2,C124389,carbon-dioxide,304.18,73.8,10.6,0.09433962264150944,1.1,7.341869918699188,0.0004938222
334.6,544.29,21485.0,4.6545e-05,10.931,13.464,51.507,40.073,75.939,736.84,-0.0014976,104.74,0.11686,supercritical,CO2,C124389,carbon-dioxide,304.18,73.8,10.6,0.09433962264150944,1.1,7.37520325203252,0.000493377
334.6,546.75,21504.0,4.6503e-05,10.922,13.465,51.474,40.077,75.877,738.4,-0.0017056,104.98,0.11706,supercritical,CO2,C124389,carbon-dioxide,304.18,73.8,10.6,0.09433962264150944,1.1,7.408536585365854,0.0004929317999999999
334.6,549.21,21523.0,4.6461e-05,10.913,13.465,51.441,40.081,75.815,739.95,-0.0019116,105.22,0.11726,supercritical,CO2,C124389,carbon-dioxide,304.18,73.8,10.6,0.09433962264150944,1.1,7.4418699186991875,0.0004924866
334.6,551.67,21543.0,4.6419e-05,10.904,13.465,51.408,40.085,75.754,741.49,-0.0021155,105.46,0.11746,supercritical,CO2,C124389,carbon-dioxide,304.18,73.8,10.6,0.09433962264150944,1.1,7.47520325203252,0.0004920414
334.6,554.13,21562.0,4.6378e-05,10.896,13.466,51.375,40.089,75.694,743.03,-0.0023174,105.7,0.11765,supercritical,CO2,C124389,carbon-dioxide,304.18,73.8,10.6,0.09433962264150944,1.1,7.508536585365854,0.0004916068
334.6,556.58,21581.0,4.6337e-05,10.887,13.466,51.342,40.093,75.634,744.56,-0.0025174,105.94,0.11785,supercritical,CO2,C124389,carbon-dioxide,304.18,73.8,10.6,0.09433962264150944,1.1,7.541734417344174,0.0004911722
334.6,559.04,21600.0,4.6297e-05,10.878,13.467,51.31,40.097,75.575,746.09,-0.0027154,106.17,0.11805,supercritical,CO2,C124389,carbon-dioxide,304.18,73.8,10.6,0.09433962264150944,1.1,7.575067750677507,0.0004907482
334.6,561.5,21619.0,4.6256e-05,10.87,13.467,51.277,40.101,75.517,747.61,-0.0029114,106.41,0.11824,supercritical,CO2,C124389,carbon-dioxide,304.18,73.8,10.6,0.09433962264150944,1.1,7.608401084010841,0.0004903135999999999
334.6,563.96,21637.0,4.6216e-05,10.861,13.468,51.245,40.105,75.459,749.13,-0.0031056,106.65,0.11844,supercritical,CO2,C124389,carbon-dioxide,304.18,73.8,10.6,0.09433962264150944,1.1,7.641734417344174,0.0004898896
334.6,566.42,21656.0,4.6176e-05,10.853,13.468,51.213,40.109,75.401,750.64,-0.0032979,106.88,0.11863,supercritical,CO2,C124389,carbon-dioxide,304.18,73.8,10.6,0.09433962264150944,1.1,7.675067750677506,0.0004894656
334.6,568.88,21675.0,4.6137e-05,10.844,13.469,51.181,40.114,75.344,752.15,-0.0034884,107.12,0.11883,supercritical,CO2,C124389,carbon-dioxide,304.18,73.8,10.6,0.09433962264150944,1.1,7.70840108401084,0.0004890522
334.6,571.33,21693.0,4.6097e-05,10.836,13.47,51.149,40.118,75.288,753.65,-0.003677,107.35,0.11902,supercritical,CO2,C124389,carbon-dioxide,304.18,73.8,10.6,0.09433962264150944,1.1,7.741598915989161,0.0004886282
334.6,573.79,21712.0,4.6058e-05,10.827,13.47,51.117,40.122,75.232,755.14,-0.0038639,107.59,0.11922,supercritical,CO2,C124389,carbon-dioxide,304.18,73.8,10.6,0.09433962264150944,1.1,7.774932249322493,0.00048821479999999995
334.6,576.25,21730.0,4.6019e-05,10.819,13.471,51.086,40.126,75.177,756.64,-0.004049,107.82,0.11941,supercritical,CO2,C124389,carbon-dioxide,304.18,73.8,10.6,0.09433962264150944,1.1,7.808265582655827,0.0004878014
334.6,578.71,21748.0,4.5981e-05,10.811,13.472,51.054,40.13,75.122,758.12,-0.0042323,108.05,0.1196,supercritical,CO2,C124389,carbon-dioxide,304.18,73.8,10.6,0.09433962264150944,1.1,7.84159891598916,0.00048739859999999993
334.6,581.17,21766.0,4.5942e-05,10.803,13.473,51.023,40.134,75.068,759.6,-0.004414,108.29,0.11979,supercritical,CO2,C124389,carbon-dioxide,304.18,73.8,10.6,0.09433962264150944,1.1,7.874932249322493,0.00048698519999999996
334.6,583.63,21784.0,4.5904e-05,10.794,13.473,50.991,40.138,75.014,761.08,-0.0045939,108.52,0.11998,supercritical,CO2,C124389,carbon-dioxide,304.18,73.8,10.6,0.09433962264150944,1.1,7.908265582655827,0.00048658239999999997
334.6,586.08,21802.0,4.5866e-05,10.786,13.474,50.96,40.143,74.961,762.55,-0.0047722,108.75,0.12018,supercritical,CO2,C124389,carbon-dioxide,304.18,73.8,10.6,0.09433962264150944,1.1,7.941463414634147,0.00048617959999999993
334.6,588.54,21820.0,4.5829e-05,10.778,13.475,50.929,40.147,74.908,764.02,-0.0049489,108.98,0.12037,supercritical,CO2,C124389,carbon-dioxide,304.18,73.8,10.6,0.09433962264150944,1.1,7.9747967479674795,0.0004857873999999999
334.6,591.0,21838.0,4.5791e-05,10.77,13.476,50.898,40.151,74.855,765.48,-0.0051239,109.22,0.12056,supercritical,CO2,C124389,carbon-dioxide,304.18,73.8,10.6,0.09433962264150944,1.1,8.008130081300813,0.0004853846
334.6,593.46,21856.0,4.5754e-05,10.762,13.477,50.868,40.155,74.804,766.94,-0.0052974,109.45,0.12075,supercritical,CO2,C124389,carbon-dioxide,304.18,73.8,10.6,0.09433962264150944,1.1,8.041463414634148,0.0004849924
334.6,595.92,21874.0,4.5717e-05,10.754,13.478,50.837,40.159,74.752,768.39,-0.0054693,109.68,0.12093,supercritical,CO2,C124389,carbon-dioxide,304.18,73.8,10.6,0.09433962264150944,1.1,8.07479674796748,0.0004846002
334.6,598.38,21891.0,4.5681e-05,10.746,13.479,50.806,40.164,74.701,769.84,-0.0056396,109.91,0.12112,supercritical,CO2,C124389,carbon-dioxide,304.18,73.8,10.6,0.09433962264150944,1.1,8.108130081300814,0.00048421859999999995
334.6,600.83,21909.0,4.5644e-05,10.738,13.48,50.776,40.168,74.651,771.28,-0.0058084,110.14,0.12131,supercritical,CO2,C124389,carbon-dioxide,304.18,73.8,10.6,0.09433962264150944,1.1,8.141327913279135,0.00048382639999999995
334.6,603.29,21926.0,4.5608e-05,10.73,13.481,50.746,40.172,74.601,772.72,-0.0059757,110.37,0.1215,supercritical,CO2,C124389,carbon-dioxide,304.18,73.8,10.6,0.09433962264150944,1.1,8.174661246612466,0.0004834448
334.6,605.75,21943.0,4.5572e-05,10.722,13.482,50.716,40.177,74.551,774.16,-0.0061415,110.6,0.12169,supercritical,CO2,C124389,carbon-dioxide,304.18,73.8,10.6,0.09433962264150944,1.1,8.2079945799458,0.00048306319999999995
334.6,608.21,21961.0,4.5536e-05,10.714,13.483,50.685,40.181,74.502,775.59,-0.0063058,110.82,0.12187,supercritical,CO2,C124389,carbon-dioxide,304.18,73.8,10.6,0.09433962264150944,1.1,8.241327913279134,0.00048268159999999993
334.6,610.67,21978.0,4.5501e-05,10.706,13.485,50.656,40.185,74.453,777.01,-0.0064687,111.05,0.12206,supercritical,CO2,C124389,carbon-dioxide,304.18,73.8,10.6,0.09433962264150944,1.1,8.274661246612466,0.00048231059999999994
334.6,613.13,21995.0,4.5465e-05,10.698,13.486,50.626,40.189,74.405,778.43,-0.0066302,111.28,0.12225,supercritical,CO2,C124389,carbon-dioxide,304.18,73.8,10.6,0.09433962264150944,1.1,8.3079945799458,0.00048192899999999997
334.6,615.58,22012.0,4.543e-05,10.69,13.487,50.596,40.194,74.357,779.85,-0.0067902,111.51,0.12243,supercritical,CO2,C124389,carbon-dioxide,304.18,73.8,10.6,0.09433962264150944,1.1,8.341192411924121,0.00048155799999999993
334.6,618.04,22029.0,4.5395e-05,10.683,13.488,50.566,40.198,74.309,781.26,-0.0069489,111.73,0.12262,supercritical,CO2,C124389,carbon-dioxide,304.18,73.8,10.6,0.09433962264150944,1.1,8.374525745257452,0.000481187
334.6,620.5,22046.0,4.536e-05,10.675,13.49,50.537,40.202,74.262,782.67,-0.0071061,111.96,0.1228,supercritical,CO2,C124389,carbon-dioxide,304.18,73.8,10.6,0.09433962264150944,1.1,8.407859078590786,0.00048081599999999996
334.6,622.96,22063.0,4.5326e-05,10.667,13.491,50.507,40.207,74.215,784.07,-0.0072621,112.19,0.12299,supercritical,CO2,C124389,carbon-dioxide,304.18,73.8,10.6,0.09433962264150944,1.1,8.44119241192412,0.00048045559999999995
334.6,625.42,22079.0,4.5291e-05,10.66,13.492,50.478,40.211,74.169,785.47,-0.0074166,112.41,0.12317,supercritical,CO2,C124389,carbon-dioxide,304.18,73.8,10.6,0.09433962264150944,1.1,8.474525745257452,0.0004800845999999999
334.6,627.88,22096.0,4.5257e-05,10.652,13.494,50.449,40.216,74.123,786.87,-0.0075699,112.64,0.12335,supercritical,CO2,C124389,carbon-dioxide,304.18,73.8,10.6,0.09433962264150944,1.1,8.507859078590787,0.0004797241999999999
334.6,630.33,22113.0,4.5223e-05,10.644,13.495,50.42,40.22,74.078,788.26,-0.0077219,112.86,0.12354,supercritical,CO2,C124389,carbon-dioxide,304.18,73.8,10.6,0.09433962264150944,1.1,8.541056910569107,0.00047936379999999996
334.6,632.79,22129.0,4.5189e-05,10.637,13.496,50.391,40.224,74.032,789.65,-0.0078725,113.09,0.12372,supercritical,CO2,C124389,carbon-dioxide,304.18,73.8,10.6,0.09433962264150944,1.1,8.574390243902439,0.00047900339999999995
334.6,635.25,22146.0,4.5156e-05,10.629,13.498,50.362,40.229,73.988,791.03,-0.008022,113.31,0.1239,supercritical,CO2,C124389,carbon-dioxide,304.18,73.8,10.6,0.09433962264150944,1.1,8.607723577235772,0.00047865359999999993
334.6,637.71,22162.0,4.5122e-05,10.622,13.499,50.333,40.233,73.943,792.41,-0.0081701,113.54,0.12408,supercritical,CO2,C124389,carbon-dioxide,304.18,73.8,10.6,0.09433962264150944,1.1,8.641056910569107,0.0004782932
334.6,640.17,22178.0,4.5089e-05,10.614,13.501,50.305,40.238,73.899,793.78,-0.008317,113.76,0.12426,supercritical,CO2,C124389,carbon-dioxide,304.18,73.8,10.6,0.09433962264150944,1.1,8.674390243902439,0.00047794339999999996
334.6,642.63,22194.0,4.5056e-05,10.607,13.502,50.276,40.242,73.855,795.15,-0.0084627,113.99,0.12445,supercritical,CO2,C124389,carbon-dioxide,304.18,73.8,10.6,0.09433962264150944,1.1,8.707723577235774,0.00047759359999999994
334.6,645.08,22211.0,4.5023e-05,10.6,13.504,50.248,40.246,73.812,796.52,-0.0086072,114.21,0.12463,supercritical,CO2,C124389,carbon-dioxide,304.18,73.8,10.6,0.09433962264150944,1.1,8.740921409214094,0.00047724379999999997
334.6,647.54,22227.0,4.4991e-05,10.592,13.505,50.219,40.251,73.769,797.88,-0.0087505,114.43,0.12481,supercritical,CO2,C124389,carbon-dioxide,304.18,73.8,10.6,0.09433962264150944,1.1,8.774254742547425,0.00047690459999999993
334.6,650.0,22243.0,4.4958e-05,10.585,13.507,50.191,40.255,73.726,799.24,-0.0088926,114.65,0.12499,supercritical,CO2,C124389,carbon-dioxide,304.18,73.8,10.6,0.09433962264150944,1.1,8.807588075880759,0.00047655479999999997
334.6,652.46,22259.0,4.4926e-05,10.577,13.509,50.163,40.26,73.684,800.59,-0.0090336,114.88,0.12517,supercritical,CO2,C124389,carbon-dioxide,304.18,73.8,10.6,0.09433962264150944,1.1,8.840921409214094,0.0004762156
334.6,654.92,22275.0,4.4894e-05,10.57,13.51,50.135,40.264,73.642,801.94,-0.0091734,115.1,0.12535,supercritical,CO2,C124389,carbon-dioxide,304.18,73.8,10.6,0.09433962264150944,1.1,8.874254742547425,0.0004758764
334.6,657.38,22291.0,4.4862e-05,10.563,13.512,50.107,40.269,73.601,803.29,-0.009312,115.32,0.12552,supercritical,CO2,C124389,carbon-dioxide,304.18,73.8,10.6,0.09433962264150944,1.1,8.90758807588076,0.00047553719999999996
334.6,659.83,22306.0,4.483e-05,10.556,13.514,50.079,40.273,73.559,804.63,-0.0094496,115.54,0.1257,supercritical,CO2,C124389,carbon-dioxide,304.18,73.8,10.6,0.09433962264150944,1.1,8.94078590785908,0.00047519799999999997
334.6,662.29,22322.0,4.4799e-05,10.548,13.515,50.051,40.278,73.518,805.97,-0.009586,115.76,0.12588,supercritical,CO2,C124389,carbon-dioxide,304.18,73.8,10.6,0.09433962264150944,1.1,8.974119241192412,0.00047486939999999997
334.6,664.75,22338.0,4.4767e-05,10.541,13.517,50.023,40.282,73.478,807.31,-0.0097214,115.98,0.12606,supercritical,CO2,C124389,carbon-dioxide,304.18,73.8,10.6,0.09433962264150944,1.1,9.007452574525745,0.0004745302
334.6,667.21,22353.0,4.4736e-05,10.534,13.519,49.996,40.287,73.437,808.64,-0.0098557,116.2,0.12624,supercritical,CO2,C124389,carbon-dioxide,304.18,73.8,10.6,0.09433962264150944,1.1,9.04078590785908,0.0004742016
334.6,669.67,22369.0,4.4705e-05,10.527,13.521,49.968,40.291,73.397,809.97,-0.0099889,116.42,0.12641,supercritical,CO2,C124389,carbon-dioxide,304.18,73.8,10.6,0.09433962264150944,1.1,9.074119241192411,0.000473873