Temperature (K),Pressure (bar),Density (mol/m3),Volume (m3/mol),Internal Energy (kJ/mol),Enthalpy (kJ/mol),Entropy (J/mol*K),Cv (J/mol*K),Cp (J/mol*K),Sound Spd. (m/s),Joule-Thomson (K/bar),Viscosity (uPa*s),Therm. Cond. (W/m*K),Phase,substance,substance_id,substance_name,Tc,Pc,rhoc,Vmc,Tr,Pr,Vmr
211.2,454.14,23738.0,4.2127e-05,-0.85292,1.0602,85.476,15.886,38.654,584.72,-0.0081106,68.355,0.062478,supercritical,Ar,C7440371,argon,150.86,48.9805,13.41,0.07457121551081282,1.4,9.271853084390727,0.00056492307
211.2,455.77,23767.0,4.2076e-05,-0.85693,1.0608,85.446,15.891,38.62,585.78,-0.0084349,68.518,0.0626,supercritical,Ar,C7440371,argon,150.86,48.9805,13.41,0.07457121551081282,1.4,9.305131634017618,0.00056423916
211.2,457.4,23795.0,4.2025e-05,-0.86091,1.0613,85.416,15.895,38.586,586.84,-0.0087563,68.68,0.06272,supercritical,Ar,C7440371,argon,150.86,48.9805,13.41,0.07457121551081282,1.4,9.33841018364451,0.0005635552500000001
211.2,459.03,23824.0,4.1974e-05,-0.86488,1.0619,85.386,15.9,38.553,587.89,-0.0090748,68.842,0.062841,supercritical,Ar,C7440371,argon,150.86,48.9805,13.41,0.07457121551081282,1.4,9.371688733271403,0.0005628713400000001
211.2,460.66,23853.0,4.1924e-05,-0.86883,1.0624,85.356,15.904,38.519,588.95,-0.0093906,69.003,0.062962,supercritical,Ar,C7440371,argon,150.86,48.9805,13.41,0.07457121551081282,1.4,9.404967282898298,0.00056220084
211.2,462.29,23881.0,4.1874e-05,-0.87276,1.063,85.327,15.908,38.486,590.0,-0.0097036,69.164,0.063082,supercritical,Ar,C7440371,argon,150.86,48.9805,13.41,0.07457121551081282,1.4,9.438245832525189,0.00056153034
211.2,463.92,23909.0,4.1825e-05,-0.87666,1.0637,85.297,15.913,38.453,591.04,-0.010014,69.325,0.063202,supercritical,Ar,C7440371,argon,150.86,48.9805,13.41,0.07457121551081282,1.4,9.471524382152081,0.00056087325
211.2,465.55,23937.0,4.1775e-05,-0.88055,1.0643,85.268,15.917,38.42,592.09,-0.010321,69.485,0.063321,supercritical,Ar,C7440371,argon,150.86,48.9805,13.41,0.07457121551081282,1.4,9.504802931778974,0.00056020275
211.2,467.18,23966.0,4.1727e-05,-0.88442,1.065,85.239,15.922,38.388,593.13,-0.010626,69.645,0.063441,supercritical,Ar,C7440371,argon,150.86,48.9805,13.41,0.07457121551081282,1.4,9.538081481405866,0.0005595590700000001
211.2,468.81,23993.0,4.1678e-05,-0.88828,1.0656,85.21,15.926,38.356,594.17,-0.010929,69.805,0.06356,supercritical,Ar,C7440371,argon,150.86,48.9805,13.41,0.07457121551081282,1.4,9.571360031032759,0.0005589019800000001
211.2,470.44,24021.0,4.163e-05,-0.89211,1.0663,85.181,15.931,38.324,595.2,-0.011228,69.965,0.063679,supercritical,Ar,C7440371,argon,150.86,48.9805,13.41,0.07457121551081282,1.4,9.60463858065965,0.0005582583000000001
211.2,472.07,24049.0,4.1582e-05,-0.89593,1.067,85.152,15.935,38.292,596.23,-0.011526,70.124,0.063798,supercritical,Ar,C7440371,argon,150.86,48.9805,13.41,0.07457121551081282,1.4,9.637917130286542,0.0005576146200000001
211.2,473.7,24076.0,4.1535e-05,-0.89973,1.0678,85.124,15.94,38.261,597.26,-0.01182,70.283,0.063916,supercritical,Ar,C7440371,argon,150.86,48.9805,13.41,0.07457121551081282,1.4,9.671195679913435,0.0005569843500000001
211.2,475.33,24104.0,4.1487e-05,-0.90351,1.0685,85.095,15.944,38.23,598.29,-0.012112,70.441,0.064035,supercritical,Ar,C7440371,argon,150.86,48.9805,13.41,0.07457121551081282,1.4,9.704474229540327,0.00055634067
211.2,476.96,24131.0,4.144e-05,-0.90727,1.0693,85.067,15.949,38.199,599.31,-0.012402,70.6,0.064153,supercritical,Ar,C7440371,argon,150.86,48.9805,13.41,0.07457121551081282,1.4,9.73775277916722,0.0005557104000000001
211.2,478.59,24158.0,4.1394e-05,-0.91101,1.0701,85.039,15.953,38.168,600.33,-0.012689,70.757,0.06427,supercritical,Ar,C7440371,argon,150.86,48.9805,13.41,0.07457121551081282,1.4,9.77103132879411,0.00055509354
211.2,480.22,24185.0,4.1348e-05,-0.91474,1.0709,85.01,15.958,38.137,601.35,-0.012974,70.915,0.064388,supercritical,Ar,C7440371,argon,150.86,48.9805,13.41,0.07457121551081282,1.4,9.804309878421005,0.00055447668
211.2,481.85,24212.0,4.1302e-05,-0.91845,1.0717,84.982,15.962,38.107,602.36,-0.013256,71.072,0.064505,supercritical,Ar,C7440371,argon,150.86,48.9805,13.41,0.07457121551081282,1.4,9.837588428047898,0.0005538598200000001
211.2,483.48,24239.0,4.1256e-05,-0.92215,1.0725,84.955,15.966,38.077,603.37,-0.013536,71.229,0.064623,supercritical,Ar,C7440371,argon,150.86,48.9805,13.41,0.07457121551081282,1.4,9.870866977674789,0.0005532429600000001
211.2,485.11,24266.0,4.1211e-05,-0.92582,1.0733,84.927,15.971,38.047,604.38,-0.013814,71.386,0.06474,supercritical,Ar,C7440371,argon,150.86,48.9805,13.41,0.07457121551081282,1.4,9.904145527301681,0.0005526395100000001
211.2,486.74,24292.0,4.1166e-05,-0.92948,1.0742,84.899,15.975,38.017,605.39,-0.01409,71.543,0.064856,supercritical,Ar,C7440371,argon,150.86,48.9805,13.41,0.07457121551081282,1.4,9.937424076928574,0.0005520360600000001
211.2,488.37,24319.0,4.1121e-05,-0.93313,1.0751,84.871,15.98,37.988,606.39,-0.014363,71.699,0.064973,supercritical,Ar,C7440371,argon,150.86,48.9805,13.41,0.07457121551081282,1.4,9.970702626555466,0.0005514326100000001
211.2,490.0,24345.0,4.1076e-05,-0.93675,1.076,84.844,15.984,37.959,607.39,-0.014634,71.855,0.065089,supercritical,Ar,C7440371,argon,150.86,48.9805,13.41,0.07457121551081282,1.4,10.003981176182359,0.00055082916
211.2,491.63,24371.0,4.1032e-05,-0.94036,1.0769,84.817,15.989,37.93,608.39,-0.014902,72.01,0.065205,supercritical,Ar,C7440371,argon,150.86,48.9805,13.41,0.07457121551081282,1.4,10.037259725809252,0.0005502391200000001
211.2,493.26,24397.0,4.0988e-05,-0.94396,1.0778,84.789,15.993,37.901,609.38,-0.015169,72.165,0.065321,supercritical,Ar,C7440371,argon,150.86,48.9805,13.41,0.07457121551081282,1.4,10.070538275436142,0.00054964908
211.2,494.89,24423.0,4.0945e-05,-0.94754,1.0788,84.762,15.998,37.872,610.37,-0.015433,72.32,0.065437,supercritical,Ar,C7440371,argon,150.86,48.9805,13.41,0.07457121551081282,1.4,10.103816825063035,0.0005490724500000001
211.2,496.52,24449.0,4.0901e-05,-0.9511,1.0797,84.735,16.002,37.844,611.36,-0.015695,72.475,0.065553,supercritical,Ar,C7440371,argon,150.86,48.9805,13.41,0.07457121551081282,1.4,10.137095374689927,0.0005484824100000001
211.2,498.15,24475.0,4.0858e-05,-0.95464,1.0807,84.708,16.007,37.815,612.35,-0.015956,72.629,0.065668,supercritical,Ar,C7440371,argon,150.86,48.9805,13.41,0.07457121551081282,1.4,10.17037392431682,0.00054790578
211.2,499.78,24500.0,4.0816e-05,-0.95818,1.0817,84.681,16.011,37.787,613.33,-0.016214,72.783,0.065783,supercritical,Ar,C7440371,argon,150.86,48.9805,13.41,0.07457121551081282,1.4,10.203652473943713,0.00054734256
211.2,501.41,24526.0,4.0773e-05,-0.96169,1.0827,84.655,16.016,37.76,614.31,-0.01647,72.937,0.065898,supercritical,Ar,C7440371,argon,150.86,48.9805,13.41,0.07457121551081282,1.4,10.236931023570605,0.00054676593
211.2,503.04,24551.0,4.0731e-05,-0.96519,1.0837,84.628,16.02,37.732,615.29,-0.016723,73.091,0.066013,supercritical,Ar,C7440371,argon,150.86,48.9805,13.41,0.07457121551081282,1.4,10.270209573197498,0.0005462027100000001
211.2,504.67,24577.0,4.0689e-05,-0.96867,1.0848,84.602,16.025,37.705,616.26,-0.016975,73.244,0.066127,supercritical,Ar,C7440371,argon,150.86,48.9805,13.41,0.07457121551081282,1.4,10.30348812282439,0.0005456394900000001
211.2,506.3,24602.0,4.0647e-05,-0.97214,1.0858,84.575,16.029,37.677,617.24,-0.017225,73.397,0.066241,supercritical,Ar,C7440371,argon,150.86,48.9805,13.41,0.07457121551081282,1.4,10.336766672451281,0.00054507627
211.2,507.93,24627.0,4.0606e-05,-0.9756,1.0869,84.549,16.034,37.65,618.21,-0.017473,73.549,0.066355,supercritical,Ar,C7440371,argon,150.86,48.9805,13.41,0.07457121551081282,1.4,10.370045222078174,0.00054452646
211.2,509.56,24652.0,4.0564e-05,-0.97904,1.088,84.523,16.038,37.623,619.17,-0.017719,73.702,0.066469,supercritical,Ar,C7440371,argon,150.86,48.9805,13.41,0.07457121551081282,1.4,10.403323771705066,0.0005439632400000001
211.2,511.19,24677.0,4.0524e-05,-0.98246,1.0891,84.497,16.042,37.597,620.14,-0.017963,73.854,0.066583,supercritical,Ar,C7440371,argon,150.86,48.9805,13.41,0.07457121551081282,1.4,10.436602321331959,0.0005434268400000001
211.2,512.82,24702.0,4.0483e-05,-0.98587,1.0902,84.471,16.047,37.57,621.1,-0.018205,74.006,0.066697,supercritical,Ar,C7440371,argon,150.86,48.9805,13.41,0.07457121551081282,1.4,10.469880870958852,0.0005428770300000001
211.2,514.45,24727.0,4.0442e-05,-0.98927,1.0913,84.445,16.051,37.544,622.06,-0.018446,74.157,0.06681,supercritical,Ar,C7440371,argon,150.86,48.9805,13.41,0.07457121551081282,1.4,10.503159420585744,0.00054232722
211.2,516.08,24751.0,4.0402e-05,-0.99265,1.0924,84.419,16.056,37.518,623.02,-0.018684,74.308,0.066923,supercritical,Ar,C7440371,argon,150.86,48.9805,13.41,0.07457121551081282,1.4,10.536437970212637,0.00054179082
211.2,517.71,24776.0,4.0362e-05,-0.99601,1.0936,84.393,16.06,37.492,623.97,-0.01892,74.459,0.067036,supercritical,Ar,C7440371,argon,150.86,48.9805,13.41,0.07457121551081282,1.4,10.56971651983953,0.00054125442
211.2,519.34,24800.0,4.0322e-05,-0.99937,1.0947,84.367,16.065,37.466,624.92,-0.019155,74.61,0.067149,supercritical,Ar,C7440371,argon,150.86,48.9805,13.41,0.07457121551081282,1.4,10.602995069466422,0.0005407180200000001
211.2,520.97,24824.0,4.0283e-05,-1.0027,1.0959,84.342,16.069,37.441,625.87,-0.019388,74.761,0.067261,supercritical,Ar,C7440371,argon,150.86,48.9805,13.41,0.07457121551081282,1.4,10.636273619093313,0.00054019503
211.2,522.6,24849.0,4.0244e-05,-1.006,1.0971,84.316,16.074,37.415,626.82,-0.019619,74.911,0.067374,supercritical,Ar,C7440371,argon,150.86,48.9805,13.41,0.07457121551081282,1.4,10.669552168720205,0.0005396720400000001
211.2,524.23,24873.0,4.0205e-05,-1.0093,1.0983,84.291,16.078,37.39,627.76,-0.019849,75.061,0.067486,supercritical,Ar,C7440371,argon,150.86,48.9805,13.41,0.07457121551081282,1.4,10.702830718347098,0.0005391490500000001
211.2,525.86,24897.0,4.0166e-05,-1.0126,1.0995,84.266,16.083,37.365,628.71,-0.020076,75.21,0.067598,supercritical,Ar,C7440371,argon,150.86,48.9805,13.41,0.07457121551081282,1.4,10.73610926797399,0.00053862606
211.2,527.49,24921.0,4.0127e-05,-1.0159,1.1008,84.241,16.087,37.34,629.65,-0.020302,75.36,0.06771,supercritical,Ar,C7440371,argon,150.86,48.9805,13.41,0.07457121551081282,1.4,10.769387817600883,0.00053810307
211.2,529.12,24945.0,4.0089e-05,-1.0192,1.102,84.216,16.091,37.315,630.58,-0.020526,75.509,0.067822,supercritical,Ar,C7440371,argon,150.86,48.9805,13.41,0.07457121551081282,1.4,10.802666367227774,0.00053759349
211.2,530.75,24968.0,4.0051e-05,-1.0224,1.1032,84.191,16.096,37.291,631.52,-0.020749,75.658,0.067933,supercritical,Ar,C7440371,argon,150.86,48.9805,13.41,0.07457121551081282,1.4,10.835944916854666,0.0005370839100000001
211.2,532.38,24992.0,4.0013e-05,-1.0257,1.1045,84.166,16.1,37.266,632.45,-0.020969,75.806,0.068045,supercritical,Ar,C7440371,argon,150.86,48.9805,13.41,0.07457121551081282,1.4,10.869223466481559,0.00053657433
211.2,534.01,25016.0,3.9975e-05,-1.0289,1.1058,84.141,16.105,37.242,633.38,-0.021189,75.955,0.068156,supercritical,Ar,C7440371,argon,150.86,48.9805,13.41,0.07457121551081282,1.4,10.902502016108452,0.0005360647500000001
211.2,535.64,25039.0,3.9938e-05,-1.0321,1.1071,84.116,16.109,37.218,634.31,-0.021406,76.103,0.068267,supercritical,Ar,C7440371,argon,150.86,48.9805,13.41,0.07457121551081282,1.4,10.935780565735344,0.0005355685800000001
211.2,537.27,25062.0,3.99e-05,-1.0353,1.1084,84.092,16.114,37.194,635.23,-0.021622,76.25,0.068377,supercritical,Ar,C7440371,argon,150.86,48.9805,13.41,0.07457121551081282,1.4,10.969059115362235,0.0005350590000000001
211.2,538.9,25086.0,3.9863e-05,-1.0385,1.1097,84.067,16.118,37.17,636.16,-0.021836,76.398,0.068488,supercritical,Ar,C7440371,argon,150.86,48.9805,13.41,0.07457121551081282,1.4,11.002337664989128,0.0005345628300000001
211.2,540.53,25109.0,3.9826e-05,-1.0417,1.111,84.043,16.123,37.146,637.08,-0.022049,76.545,0.068599,supercritical,Ar,C7440371,argon,150.86,48.9805,13.41,0.07457121551081282,1.4,11.03561621461602,0.0005340666600000001
211.2,542.16,25132.0,3.979e-05,-1.0449,1.1124,84.018,16.127,37.123,638.0,-0.02226,76.692,0.068709,supercritical,Ar,C7440371,argon,150.86,48.9805,13.41,0.07457121551081282,1.4,11.068894764242913,0.0005335839
211.2,543.79,25155.0,3.9753e-05,-1.048,1.1137,83.994,16.131,37.1,638.91,-0.02247,76.839,0.068819,supercritical,Ar,C7440371,argon,150.86,48.9805,13.41,0.07457121551081282,1.4,11.102173313869805,0.00053308773
211.2,545.42,25178.0,3.9717e-05,-1.0512,1.1151,83.97,16.136,37.077,639.83,-0.022678,76.986,0.068929,supercritical,Ar,C7440371,argon,150.86,48.9805,13.41,0.07457121551081282,1.4,11.135451863496696,0.00053260497
211.2,547.05,25201.0,3.9681e-05,-1.0543,1.1165,83.946,16.14,37.054,640.74,-0.022884,77.132,0.069039,supercritical,Ar,C7440371,argon,150.86,48.9805,13.41,0.07457121551081282,1.4,11.168730413123589,0.00053212221
211.2,548.68,25224.0,3.9645e-05,-1.0574,1.1179,83.922,16.145,37.031,641.65,-0.023089,77.278,0.069148,supercritical,Ar,C7440371,argon,150.86,48.9805,13.41,0.07457121551081282,1.4,11.202008962750481,0.00053163945
211.2,550.31,25246.0,3.961e-05,-1.0605,1.1193,83.898,16.149,37.008,642.55,-0.023293,77.424,0.069258,supercritical,Ar,C7440371,argon,150.86,48.9805,13.41,0.07457121551081282,1.4,11.235287512377374,0.0005311701000000001
211.2,551.94,25269.0,3.9574e-05,-1.0636,1.1207,83.874,16.154,36.985,643.46,-0.023495,77.57,0.069367,supercritical,Ar,C7440371,argon,150.86,48.9805,13.41,0.07457121551081282,1.4,11.268566062004268,0.00053068734
211.2,553.57,25291.0,3.9539e-05,-1.0667,1.1221,83.85,16.158,36.963,644.36,-0.023696,77.715,0.069476,supercritical,Ar,C7440371,argon,150.86,48.9805,13.41,0.07457121551081282,1.4,11.30184461163116,0.0005302179900000001
211.2,555.2,25314.0,3.9504e-05,-1.0697,1.1235,83.826,16.162,36.941,645.26,-0.023895,77.86,0.069585,supercritical,Ar,C7440371,argon,150.86,48.9805,13.41,0.07457121551081282,1.4,11.335123161258053,0.0005297486400000001
211.2,556.83,25336.0,3.9469e-05,-1.0728,1.125,83.803,16.167,36.919,646.16,-0.024093,78.005,0.069694,supercritical,Ar,C7440371,argon,150.86,48.9805,13.41,0.07457121551081282,1.4,11.368401710884944,0.00052927929
211.2,558.46,25359.0,3.9434e-05,-1.0758,1.1264,83.779,16.171,36.897,647.06,-0.024289,78.149,0.069803,supercritical,Ar,C7440371,argon,150.86,48.9805,13.41,0.07457121551081282,1.4,11.401680260511837,0.0005288099400000001
211.2,560.09,25381.0,3.94e-05,-1.0789,1.1279,83.756,16.176,36.875,647.95,-0.024484,78.294,0.069911,supercritical,Ar,C7440371,argon,150.86,48.9805,13.41,0.07457121551081282,1.4,11.43495881013873,0.0005283540000000001
211.2,561.72,25403.0,3.9366e-05,-1.0819,1.1294,83.732,16.18,36.853,648.84,-0.024677,78.438,0.07002,supercritical,Ar,C7440371,argon,150.86,48.9805,13.41,0.07457121551081282,1.4,11.468237359765622,0.00052789806
211.2,563.35,25425.0,3.9332e-05,-1.0849,1.1309,83.709,16.185,36.832,649.73,-0.02487,78.582,0.070128,supercritical,Ar,C7440371,argon,150.86,48.9805,13.41,0.07457121551081282,1.4,11.501515909392515,0.0005274421200000001
211.2,564.98,25447.0,3.9298e-05,-1.0879,1.1324,83.686,16.189,36.81,650.62,-0.02506,78.725,0.070236,supercritical,Ar,C7440371,argon,150.86,48.9805,13.41,0.07457121551081282,1.4,11.534794459019405,0.00052698618
211.2,566.61,25469.0,3.9264e-05,-1.0909,1.1339,83.662,16.193,36.789,651.5,-0.02525,78.869,0.070344,supercritical,Ar,C7440371,argon,150.86,48.9805,13.41,0.07457121551081282,1.4,11.568073008646298,0.0005265302400000001
211.2,568.24,25491.0,3.923e-05,-1.0938,1.1354,83.639,16.198,36.768,652.39,-0.025438,79.012,0.070452,supercritical,Ar,C7440371,argon,150.86,48.9805,13.41,0.07457121551081282,1.4,11.60135155827319,0.0005260743000000001
211.2,569.87,25512.0,3.9197e-05,-1.0968,1.1369,83.616,16.202,36.747,653.27,-0.025625,79.155,0.070559,supercritical,Ar,C7440371,argon,150.86,48.9805,13.41,0.07457121551081282,1.4,11.634630107900083,0.00052563177
211.2,571.5,25534.0,3.9164e-05,-1.0997,1.1385,83.593,16.207,36.726,654.15,-0.02581,79.298,0.070667,supercritical,Ar,C7440371,argon,150.86,48.9805,13.41,0.07457121551081282,1.4,11.667908657526976,0.00052518924
211.2,573.13,25555.0,3.9131e-05,-1.1027,1.14,83.57,16.211,36.705,655.02,-0.025995,79.44,0.070774,supercritical,Ar,C7440371,argon,150.86,48.9805,13.41,0.07457121551081282,1.4,11.701187207153868,0.0005247467100000001
211.2,574.76,25577.0,3.9098e-05,-1.1056,1.1416,83.548,16.215,36.684,655.9,-0.026177,79.583,0.070881,supercritical,Ar,C7440371,argon,150.86,48.9805,13.41,0.07457121551081282,1.4,11.734465756780759,0.00052430418
211.2,576.39,25598.0,3.9065e-05,-1.1085,1.1431,83.525,16.22,36.664,656.77,-0.026359,79.725,0.070988,supercritical,Ar,C7440371,argon,150.86,48.9805,13.41,0.07457121551081282,1.4,11.767744306407652,0.00052386165
211.2,578.02,25620.0,3.9032e-05,-1.1114,1.1447,83.502,16.224,36.643,657.64,-0.02654,79.866,0.071095,supercritical,Ar,C7440371,argon,150.86,48.9805,13.41,0.07457121551081282,1.4,11.801022856034544,0.0005234191200000001
211.2,579.65,25641.0,3.9e-05,-1.1143,1.1463,83.48,16.229,36.623,658.51,-0.026719,80.008,0.071201,supercritical,Ar,C7440371,argon,150.86,48.9805,13.41,0.07457121551081282,1.4,11.834301405661437,0.0005229900000000001
211.2,581.28,25662.0,3.8968e-05,-1.1172,1.1479,83.457,16.233,36.603,659.38,-0.026897,80.15,0.071308,supercritical,Ar,C7440371,argon,150.86,48.9805,13.41,0.07457121551081282,1.4,11.86757995528833,0.00052256088
211.2,582.91,25683.0,3.8936e-05,-1.1201,1.1495,83.435,16.237,36.583,660.24,-0.027073,80.291,0.071414,supercritical,Ar,C7440371,argon,150.86,48.9805,13.41,0.07457121551081282,1.4,11.90085850491522,0.0005221317600000001
211.2,584.54,25704.0,3.8904e-05,-1.123,1.1511,83.412,16.242,36.563,661.1,-0.027249,80.432,0.071521,supercritical,Ar,C7440371,argon,150.86,48.9805,13.41,0.07457121551081282,1.4,11.934137054542113,0.00052170264
211.2,586.17,25725.0,3.8872e-05,-1.1258,1.1528,83.39,16.246,36.543,661.96,-0.027423,80.572,0.071627,supercritical,Ar,C7440371,argon,150.86,48.9805,13.41,0.07457121551081282,1.4,11.967415604169005,0.0005212735200000001
211.2,587.8,25746.0,3.8841e-05,-1.1286,1.1544,83.368,16.25,36.524,662.82,-0.027596,80.713,0.071733,supercritical,Ar,C7440371,argon,150.86,48.9805,13.41,0.07457121551081282,1.4,12.000694153795898,0.0005208578100000001
211.2,589.43,25767.0,3.8809e-05,-1.1315,1.156,83.346,16.255,36.504,663.68,-0.027768,80.853,0.071839,supercritical,Ar,C7440371,argon,150.86,48.9805,13.41,0.07457121551081282,1.4,12.03397270342279,0.00052042869
211.2,591.06,25788.0,3.8778e-05,-1.1343,1.1577,83.324,16.259,36.485,664.53,-0.027939,80.993,0.071944,supercritical,Ar,C7440371,argon,150.86,48.9805,13.41,0.07457121551081282,1.4,12.067251253049681,0.00052001298
211.2,592.69,25809.0,3.8747e-05,-1.1371,1.1594,83.302,16.264,36.465,665.38,-0.028109,81.133,0.07205,supercritical,Ar,C7440371,argon,150.86,48.9805,13.41,0.07457121551081282,1.4,12.100529802676578,0.00051959727
211.2,594.32,25829.0,3.8716e-05,-1.1399,1.161,83.28,16.268,36.446,666.24,-0.028277,81.273,0.072155,supercritical,Ar,C7440371,argon,150.86,48.9805,13.41,0.07457121551081282,1.4,12.133808352303468,0.00051918156
211.2,595.95,25850.0,3.8685e-05,-1.1427,1.1627,83.258,16.272,36.427,667.08,-0.028445,81.412,0.07226,supercritical,Ar,C7440371,argon,150.86,48.9805,13.41,0.07457121551081282,1.4,12.167086901930361,0.0005187658500000001
211.2,597.58,25870.0,3.8654e-05,-1.1455,1.1644,83.236,16.277,36.408,667.93,-0.028611,81.552,0.072365,supercritical,Ar,C7440371,argon,150.86,48.9805,13.41,0.07457121551081282,1.4,12.200365451557253,0.0005183501400000001
211.2,599.21,25891.0,3.8624e-05,-1.1483,1.1661,83.214,16.281,36.389,668.78,-0.028776,81.691,0.07247,supercritical,Ar,C7440371,argon,150.86,48.9805,13.41,0.07457121551081282,1.4,12.233644001184146,0.00051794784
211.2,600.84,25911.0,3.8594e-05,-1.151,1.1678,83.192,16.285,36.371,669.62,-0.02894,81.829,0.072575,supercritical,Ar,C7440371,argon,150.86,48.9805,13.41,0.07457121551081282,1.4,12.266922550811039,0.00051754554
211.2,602.47,25931.0,3.8563e-05,-1.1538,1.1696,83.171,16.29,36.352,670.46,-0.029103,81.968,0.07268,supercritical,Ar,C7440371,argon,150.86,48.9805,13.41,0.07457121551081282,1.4,12.30020110043793,0.0005171298300000001