Temperature (K),Pressure (bar),Density (mol/m3),Volume (m3/mol),Internal Energy (kJ/mol),Enthalpy (kJ/mol),Entropy (J/mol*K),Cv (J/mol*K),Cp (J/mol*K),Sound Spd. (m/s),Joule-Thomson (K/bar),Viscosity (uPa*s),Therm. Cond. (W/m*K),Phase,substance,substance_id,substance_name,Tc,Pc,rhoc,Vmc,Tr,Pr,Vmr
273.76,1141.7,27318.0,3.6607e-05,5.688,9.8672,31.732,42.735,71.564,1190.8,-0.027612,245.66,0.19534,liquid,CO2,C124389,carbon-dioxide,304.18,73.8,10.6,0.09433962264150944,0.9,15.47018970189702,0.00038803419999999995
273.76,1144.1,27324.0,3.6598e-05,5.6849,9.8721,31.717,42.74,71.554,1191.6,-0.027634,245.92,0.19547,liquid,CO2,C124389,carbon-dioxide,304.18,73.8,10.6,0.09433962264150944,0.9,15.502710027100271,0.00038793879999999995
273.76,1146.6,27331.0,3.6589e-05,5.6817,9.877,31.702,42.745,71.544,1192.3,-0.027656,246.19,0.1956,liquid,CO2,C124389,carbon-dioxide,304.18,73.8,10.6,0.09433962264150944,0.9,15.536585365853657,0.00038784339999999994
273.76,1149.0,27337.0,3.658e-05,5.6786,9.8818,31.687,42.751,71.533,1193.1,-0.027678,246.45,0.19574,liquid,CO2,C124389,carbon-dioxide,304.18,73.8,10.6,0.09433962264150944,0.9,15.569105691056912,0.00038774799999999993
273.76,1151.5,27344.0,3.6571e-05,5.6755,9.8867,31.672,42.756,71.523,1193.9,-0.0277,246.71,0.19587,liquid,CO2,C124389,carbon-dioxide,304.18,73.8,10.6,0.09433962264150944,0.9,15.602981029810298,0.0003876526
273.76,1154.0,27350.0,3.6563e-05,5.6724,9.8916,31.657,42.761,71.513,1194.7,-0.027721,246.98,0.196,liquid,CO2,C124389,carbon-dioxide,304.18,73.8,10.6,0.09433962264150944,0.9,15.636856368563686,0.0003875678
273.76,1156.4,27357.0,3.6554e-05,5.6693,9.8964,31.642,42.766,71.503,1195.5,-0.027743,247.24,0.19613,liquid,CO2,C124389,carbon-dioxide,304.18,73.8,10.6,0.09433962264150944,0.9,15.669376693766939,0.0003874724
273.76,1158.9,27363.0,3.6545e-05,5.6662,9.9013,31.627,42.771,71.493,1196.2,-0.027765,247.51,0.19626,liquid,CO2,C124389,carbon-dioxide,304.18,73.8,10.6,0.09433962264150944,0.9,15.703252032520327,0.000387377
273.76,1161.3,27370.0,3.6536e-05,5.6631,9.9062,31.612,42.776,71.483,1197.0,-0.027786,247.77,0.19638,liquid,CO2,C124389,carbon-dioxide,304.18,73.8,10.6,0.09433962264150944,0.9,15.735772357723578,0.00038728159999999994
273.76,1163.8,27376.0,3.6528e-05,5.66,9.9111,31.597,42.781,71.474,1197.8,-0.027808,248.03,0.19651,liquid,CO2,C124389,carbon-dioxide,304.18,73.8,10.6,0.09433962264150944,0.9,15.769647696476964,0.00038719679999999997
273.76,1166.2,27383.0,3.6519e-05,5.6569,9.916,31.582,42.786,71.464,1198.6,-0.027829,248.3,0.19664,liquid,CO2,C124389,carbon-dioxide,304.18,73.8,10.6,0.09433962264150944,0.9,15.802168021680219,0.00038710139999999997
273.76,1168.7,27389.0,3.651e-05,5.6539,9.9209,31.567,42.791,71.454,1199.4,-0.02785,248.56,0.19677,liquid,CO2,C124389,carbon-dioxide,304.18,73.8,10.6,0.09433962264150944,0.9,15.836043360433605,0.00038700599999999996
273.76,1171.2,27396.0,3.6502e-05,5.6508,9.9258,31.552,42.796,71.444,1200.1,-0.027871,248.82,0.1969,liquid,CO2,C124389,carbon-dioxide,304.18,73.8,10.6,0.09433962264150944,0.9,15.869918699186993,0.00038692119999999994
273.76,1173.6,27402.0,3.6493e-05,5.6477,9.9307,31.537,42.801,71.435,1200.9,-0.027892,249.09,0.19703,liquid,CO2,C124389,carbon-dioxide,304.18,73.8,10.6,0.09433962264150944,0.9,15.902439024390244,0.00038682579999999993
273.76,1176.1,27409.0,3.6485e-05,5.6447,9.9356,31.522,42.806,71.425,1201.7,-0.027913,249.35,0.19716,liquid,CO2,C124389,carbon-dioxide,304.18,73.8,10.6,0.09433962264150944,0.9,15.93631436314363,0.00038674099999999996
273.76,1178.5,27415.0,3.6476e-05,5.6416,9.9405,31.508,42.811,71.415,1202.4,-0.027934,249.61,0.19729,liquid,CO2,C124389,carbon-dioxide,304.18,73.8,10.6,0.09433962264150944,0.9,15.968834688346885,0.0003866456
273.76,1181.0,27422.0,3.6467e-05,5.6386,9.9454,31.493,42.816,71.406,1203.2,-0.027955,249.88,0.19742,liquid,CO2,C124389,carbon-dioxide,304.18,73.8,10.6,0.09433962264150944,0.9,16.00271002710027,0.0003865502
273.76,1183.5,27428.0,3.6459e-05,5.6355,9.9503,31.478,42.821,71.396,1204.0,-0.027976,250.14,0.19755,liquid,CO2,C124389,carbon-dioxide,304.18,73.8,10.6,0.09433962264150944,0.9,16.03658536585366,0.0003864653999999999
273.76,1185.9,27435.0,3.645e-05,5.6325,9.9552,31.463,42.826,71.387,1204.8,-0.027996,250.4,0.19768,liquid,CO2,C124389,carbon-dioxide,304.18,73.8,10.6,0.09433962264150944,0.9,16.06910569105691,0.00038637
273.76,1188.4,27441.0,3.6442e-05,5.6294,9.9601,31.448,42.831,71.377,1205.5,-0.028017,250.67,0.19781,liquid,CO2,C124389,carbon-dioxide,304.18,73.8,10.6,0.09433962264150944,0.9,16.1029810298103,0.0003862852
273.76,1190.8,27447.0,3.6433e-05,5.6264,9.965,31.434,42.836,71.368,1206.3,-0.028037,250.93,0.19794,liquid,CO2,C124389,carbon-dioxide,304.18,73.8,10.6,0.09433962264150944,0.9,16.13550135501355,0.0003861898
273.76,1193.3,27454.0,3.6425e-05,5.6234,9.9699,31.419,42.841,71.358,1207.0,-0.028058,251.19,0.19806,liquid,CO2,C124389,carbon-dioxide,304.18,73.8,10.6,0.09433962264150944,0.9,16.16937669376694,0.0003861049999999999
273.76,1195.7,27460.0,3.6416e-05,5.6204,9.9749,31.404,42.846,71.349,1207.8,-0.028078,251.45,0.19819,liquid,CO2,C124389,carbon-dioxide,304.18,73.8,10.6,0.09433962264150944,0.9,16.20189701897019,0.00038600959999999997
273.76,1198.2,27467.0,3.6408e-05,5.6174,9.9798,31.389,42.852,71.34,1208.6,-0.028099,251.72,0.19832,liquid,CO2,C124389,carbon-dioxide,304.18,73.8,10.6,0.09433962264150944,0.9,16.23577235772358,0.0003859248
273.76,1200.7,27473.0,3.6399e-05,5.6144,9.9847,31.375,42.857,71.33,1209.3,-0.028119,251.98,0.19845,liquid,CO2,C124389,carbon-dioxide,304.18,73.8,10.6,0.09433962264150944,0.9,16.269647696476966,0.0003858294
273.76,1203.1,27479.0,3.6391e-05,5.6114,9.9896,31.36,42.862,71.321,1210.1,-0.028139,252.24,0.19858,liquid,CO2,C124389,carbon-dioxide,304.18,73.8,10.6,0.09433962264150944,0.9,16.302168021680217,0.00038574459999999997
273.76,1205.6,27486.0,3.6383e-05,5.6084,9.9946,31.345,42.867,71.312,1210.9,-0.028159,252.5,0.19871,liquid,CO2,C124389,carbon-dioxide,304.18,73.8,10.6,0.09433962264150944,0.9,16.336043360433603,0.0003856598
273.76,1208.0,27492.0,3.6374e-05,5.6054,9.9995,31.331,42.872,71.303,1211.6,-0.028179,252.77,0.19883,liquid,CO2,C124389,carbon-dioxide,304.18,73.8,10.6,0.09433962264150944,0.9,16.368563685636857,0.0003855644
273.76,1210.5,27498.0,3.6366e-05,5.6024,10.004,31.316,42.877,71.294,1212.4,-0.028199,253.03,0.19896,liquid,CO2,C124389,carbon-dioxide,304.18,73.8,10.6,0.09433962264150944,0.9,16.402439024390244,0.0003854795999999999
273.76,1213.0,27505.0,3.6358e-05,5.5994,10.009,31.302,42.882,71.285,1213.1,-0.028219,253.29,0.19909,liquid,CO2,C124389,carbon-dioxide,304.18,73.8,10.6,0.09433962264150944,0.9,16.436314363143634,0.00038539479999999995
273.76,1215.4,27511.0,3.6349e-05,5.5964,10.014,31.287,42.887,71.276,1213.9,-0.028238,253.55,0.19922,liquid,CO2,C124389,carbon-dioxide,304.18,73.8,10.6,0.09433962264150944,0.9,16.468834688346885,0.0003852994
273.76,1217.9,27517.0,3.6341e-05,5.5934,10.019,31.272,42.892,71.267,1214.6,-0.028258,253.82,0.19934,liquid,CO2,C124389,carbon-dioxide,304.18,73.8,10.6,0.09433962264150944,0.9,16.502710027100274,0.00038521460000000003
273.76,1220.3,27523.0,3.6333e-05,5.5905,10.024,31.258,42.897,71.258,1215.4,-0.028278,254.08,0.19947,liquid,CO2,C124389,carbon-dioxide,304.18,73.8,10.6,0.09433962264150944,0.9,16.535230352303522,0.00038512979999999995
273.76,1222.8,27530.0,3.6324e-05,5.5875,10.029,31.243,42.902,71.249,1216.1,-0.028297,254.34,0.1996,liquid,CO2,C124389,carbon-dioxide,304.18,73.8,10.6,0.09433962264150944,0.9,16.56910569105691,0.00038503439999999995
273.76,1225.2,27536.0,3.6316e-05,5.5845,10.034,31.229,42.907,71.24,1216.9,-0.028317,254.6,0.19973,liquid,CO2,C124389,carbon-dioxide,304.18,73.8,10.6,0.09433962264150944,0.9,16.601626016260163,0.0003849496
273.76,1227.7,27542.0,3.6308e-05,5.5816,10.039,31.214,42.912,71.231,1217.6,-0.028336,254.87,0.19985,liquid,CO2,C124389,carbon-dioxide,304.18,73.8,10.6,0.09433962264150944,0.9,16.635501355013552,0.00038486479999999995
273.76,1230.2,27549.0,3.63e-05,5.5786,10.044,31.2,42.917,71.222,1218.4,-0.028355,255.13,0.19998,liquid,CO2,C124389,carbon-dioxide,304.18,73.8,10.6,0.09433962264150944,0.9,16.66937669376694,0.00038478
273.76,1232.6,27555.0,3.6291e-05,5.5757,10.049,31.185,42.922,71.213,1219.1,-0.028374,255.39,0.20011,liquid,CO2,C124389,carbon-dioxide,304.18,73.8,10.6,0.09433962264150944,0.9,16.70189701897019,0.0003846846
273.76,1235.1,27561.0,3.6283e-05,5.5728,10.054,31.171,42.927,71.204,1219.9,-0.028394,255.65,0.20024,liquid,CO2,C124389,carbon-dioxide,304.18,73.8,10.6,0.09433962264150944,0.9,16.735772357723576,0.00038459979999999996
273.76,1237.5,27567.0,3.6275e-05,5.5698,10.059,31.157,42.932,71.196,1220.6,-0.028413,255.91,0.20036,liquid,CO2,C124389,carbon-dioxide,304.18,73.8,10.6,0.09433962264150944,0.9,16.76829268292683,0.000384515
273.76,1240.0,27573.0,3.6267e-05,5.5669,10.064,31.142,42.937,71.187,1221.4,-0.028432,256.17,0.20049,liquid,CO2,C124389,carbon-dioxide,304.18,73.8,10.6,0.09433962264150944,0.9,16.802168021680217,0.00038443019999999996
273.76,1242.5,27580.0,3.6259e-05,5.564,10.069,31.128,42.942,71.178,1222.1,-0.028451,256.44,0.20062,liquid,CO2,C124389,carbon-dioxide,304.18,73.8,10.6,0.09433962264150944,0.9,16.836043360433607,0.0003843454
273.76,1244.9,27586.0,3.625e-05,5.561,10.074,31.113,42.947,71.17,1222.9,-0.028469,256.7,0.20074,liquid,CO2,C124389,carbon-dioxide,304.18,73.8,10.6,0.09433962264150944,0.9,16.868563685636857,0.00038425
273.76,1247.4,27592.0,3.6242e-05,5.5581,10.079,31.099,42.953,71.161,1223.6,-0.028488,256.96,0.20087,liquid,CO2,C124389,carbon-dioxide,304.18,73.8,10.6,0.09433962264150944,0.9,16.902439024390247,0.0003841652
273.76,1249.8,27598.0,3.6234e-05,5.5552,10.084,31.085,42.958,71.153,1224.4,-0.028507,257.22,0.201,liquid,CO2,C124389,carbon-dioxide,304.18,73.8,10.6,0.09433962264150944,0.9,16.934959349593495,0.00038408039999999994
273.76,1252.3,27604.0,3.6226e-05,5.5523,10.089,31.07,42.963,71.144,1225.1,-0.028526,257.48,0.20112,liquid,CO2,C124389,carbon-dioxide,304.18,73.8,10.6,0.09433962264150944,0.9,16.968834688346885,0.0003839956
273.76,1254.7,27611.0,3.6218e-05,5.5494,10.094,31.056,42.968,71.136,1225.8,-0.028544,257.74,0.20125,liquid,CO2,C124389,carbon-dioxide,304.18,73.8,10.6,0.09433962264150944,0.9,17.001355013550135,0.00038391079999999995
273.76,1257.2,27617.0,3.621e-05,5.5465,10.099,31.042,42.973,71.127,1226.6,-0.028563,258.0,0.20137,liquid,CO2,C124389,carbon-dioxide,304.18,73.8,10.6,0.09433962264150944,0.9,17.035230352303525,0.000383826
273.76,1259.7,27623.0,3.6202e-05,5.5436,10.104,31.028,42.978,71.119,1227.3,-0.028581,258.27,0.2015,liquid,CO2,C124389,carbon-dioxide,304.18,73.8,10.6,0.09433962264150944,0.9,17.06910569105691,0.0003837412
273.76,1262.1,27629.0,3.6194e-05,5.5407,10.109,31.013,42.983,71.11,1228.1,-0.0286,258.53,0.20163,liquid,CO2,C124389,carbon-dioxide,304.18,73.8,10.6,0.09433962264150944,0.9,17.101626016260163,0.0003836564
273.76,1264.6,27635.0,3.6186e-05,5.5379,10.114,30.999,42.988,71.102,1228.8,-0.028618,258.79,0.20175,liquid,CO2,C124389,carbon-dioxide,304.18,73.8,10.6,0.09433962264150944,0.9,17.13550135501355,0.0003835716
273.76,1267.0,27641.0,3.6178e-05,5.535,10.119,30.985,42.993,71.094,1229.5,-0.028636,259.05,0.20188,liquid,CO2,C124389,carbon-dioxide,304.18,73.8,10.6,0.09433962264150944,0.9,17.168021680216803,0.00038348679999999994
273.76,1269.5,27647.0,3.617e-05,5.5321,10.124,30.971,42.998,71.085,1230.3,-0.028654,259.31,0.20201,liquid,CO2,C124389,carbon-dioxide,304.18,73.8,10.6,0.09433962264150944,0.9,17.20189701897019,0.00038340199999999997
273.76,1272.0,27653.0,3.6162e-05,5.5292,10.129,30.957,43.003,71.077,1231.0,-0.028672,259.57,0.20213,liquid,CO2,C124389,carbon-dioxide,304.18,73.8,10.6,0.09433962264150944,0.9,17.23577235772358,0.00038331719999999995
273.76,1274.4,27659.0,3.6154e-05,5.5264,10.134,30.942,43.008,71.069,1231.7,-0.028691,259.83,0.20226,liquid,CO2,C124389,carbon-dioxide,304.18,73.8,10.6,0.09433962264150944,0.9,17.26829268292683,0.0003832324
273.76,1276.9,27666.0,3.6146e-05,5.5235,10.139,30.928,43.013,71.061,1232.5,-0.028708,260.09,0.20238,liquid,CO2,C124389,carbon-dioxide,304.18,73.8,10.6,0.09433962264150944,0.9,17.30216802168022,0.0003831476
273.76,1279.3,27672.0,3.6138e-05,5.5207,10.144,30.914,43.018,71.052,1233.2,-0.028726,260.35,0.20251,liquid,CO2,C124389,carbon-dioxide,304.18,73.8,10.6,0.09433962264150944,0.9,17.334688346883468,0.00038306279999999993
273.76,1281.8,27678.0,3.613e-05,5.5178,10.149,30.9,43.023,71.044,1233.9,-0.028744,260.62,0.20263,liquid,CO2,C124389,carbon-dioxide,304.18,73.8,10.6,0.09433962264150944,0.9,17.368563685636857,0.00038297799999999996
273.76,1284.2,27684.0,3.6122e-05,5.515,10.154,30.886,43.028,71.036,1234.7,-0.028762,260.88,0.20276,liquid,CO2,C124389,carbon-dioxide,304.18,73.8,10.6,0.09433962264150944,0.9,17.40108401084011,0.00038289319999999994
273.76,1286.7,27690.0,3.6114e-05,5.5121,10.159,30.872,43.033,71.028,1235.4,-0.02878,261.14,0.20288,liquid,CO2,C124389,carbon-dioxide,304.18,73.8,10.6,0.09433962264150944,0.9,17.4349593495935,0.00038280839999999997
273.76,1289.2,27696.0,3.6107e-05,5.5093,10.164,30.858,43.038,71.02,1236.1,-0.028797,261.4,0.20301,liquid,CO2,C124389,carbon-dioxide,304.18,73.8,10.6,0.09433962264150944,0.9,17.468834688346885,0.00038273419999999993
273.76,1291.6,27702.0,3.6099e-05,5.5064,10.169,30.844,43.043,71.012,1236.8,-0.028815,261.66,0.20313,liquid,CO2,C124389,carbon-dioxide,304.18,73.8,10.6,0.09433962264150944,0.9,17.501355013550135,0.00038264939999999996
273.76,1294.1,27708.0,3.6091e-05,5.5036,10.174,30.83,43.048,71.004,1237.6,-0.028833,261.92,0.20326,liquid,CO2,C124389,carbon-dioxide,304.18,73.8,10.6,0.09433962264150944,0.9,17.535230352303522,0.00038256459999999994
273.76,1296.5,27714.0,3.6083e-05,5.5008,10.179,30.816,43.054,70.996,1238.3,-0.02885,262.18,0.20338,liquid,CO2,C124389,carbon-dioxide,304.18,73.8,10.6,0.09433962264150944,0.9,17.567750677506776,0.00038247979999999997
273.76,1299.0,27720.0,3.6075e-05,5.498,10.184,30.802,43.059,70.988,1239.0,-0.028867,262.44,0.20351,liquid,CO2,C124389,carbon-dioxide,304.18,73.8,10.6,0.09433962264150944,0.9,17.601626016260163,0.000382395
273.76,1301.5,27726.0,3.6067e-05,5.4952,10.189,30.788,43.064,70.98,1239.7,-0.028885,262.7,0.20363,liquid,CO2,C124389,carbon-dioxide,304.18,73.8,10.6,0.09433962264150944,0.9,17.635501355013552,0.0003823102
273.76,1303.9,27732.0,3.606e-05,5.4924,10.194,30.774,43.069,70.972,1240.4,-0.028902,262.96,0.20376,liquid,CO2,C124389,carbon-dioxide,304.18,73.8,10.6,0.09433962264150944,0.9,17.668021680216803,0.00038223599999999994
273.76,1306.4,27738.0,3.6052e-05,5.4895,10.199,30.76,43.074,70.965,1241.2,-0.028919,263.22,0.20388,liquid,CO2,C124389,carbon-dioxide,304.18,73.8,10.6,0.09433962264150944,0.9,17.701897018970193,0.00038215119999999997
273.76,1308.8,27744.0,3.6044e-05,5.4867,10.204,30.746,43.079,70.957,1241.9,-0.028936,263.48,0.20401,liquid,CO2,C124389,carbon-dioxide,304.18,73.8,10.6,0.09433962264150944,0.9,17.73441734417344,0.0003820664
273.76,1311.3,27750.0,3.6036e-05,5.4839,10.209,30.732,43.084,70.949,1242.6,-0.028953,263.74,0.20413,liquid,CO2,C124389,carbon-dioxide,304.18,73.8,10.6,0.09433962264150944,0.9,17.76829268292683,0.0003819816
273.76,1313.7,27756.0,3.6029e-05,5.4812,10.214,30.718,43.089,70.941,1243.3,-0.028971,264.0,0.20426,liquid,CO2,C124389,carbon-dioxide,304.18,73.8,10.6,0.09433962264150944,0.9,17.80081300813008,0.00038190739999999993
273.76,1316.2,27762.0,3.6021e-05,5.4784,10.219,30.704,43.094,70.934,1244.0,-0.028987,264.26,0.20438,liquid,CO2,C124389,carbon-dioxide,304.18,73.8,10.6,0.09433962264150944,0.9,17.83468834688347,0.00038182259999999997
273.76,1318.7,27768.0,3.6013e-05,5.4756,10.225,30.69,43.099,70.926,1244.8,-0.029004,264.52,0.2045,liquid,CO2,C124389,carbon-dioxide,304.18,73.8,10.6,0.09433962264150944,0.9,17.868563685636857,0.0003817378
273.76,1321.1,27774.0,3.6005e-05,5.4728,10.23,30.676,43.104,70.918,1245.5,-0.029021,264.78,0.20463,liquid,CO2,C124389,carbon-dioxide,304.18,73.8,10.6,0.09433962264150944,0.9,17.90108401084011,0.00038165299999999997
273.76,1323.6,27779.0,3.5998e-05,5.47,10.235,30.662,43.109,70.911,1246.2,-0.029038,265.04,0.20475,liquid,CO2,C124389,carbon-dioxide,304.18,73.8,10.6,0.09433962264150944,0.9,17.934959349593495,0.0003815788
273.76,1326.0,27785.0,3.599e-05,5.4673,10.24,30.649,43.114,70.903,1246.9,-0.029055,265.3,0.20488,liquid,CO2,C124389,carbon-dioxide,304.18,73.8,10.6,0.09433962264150944,0.9,17.96747967479675,0.00038149399999999996
273.76,1328.5,27791.0,3.5983e-05,5.4645,10.245,30.635,43.119,70.896,1247.6,-0.029071,265.56,0.205,liquid,CO2,C124389,carbon-dioxide,304.18,73.8,10.6,0.09433962264150944,0.9,18.001355013550135,0.0003814197999999999
273.76,1331.0,27797.0,3.5975e-05,5.4617,10.25,30.621,43.124,70.888,1248.3,-0.029088,265.82,0.20512,liquid,CO2,C124389,carbon-dioxide,304.18,73.8,10.6,0.09433962264150944,0.9,18.035230352303525,0.00038133499999999995
273.76,1333.4,27803.0,3.5967e-05,5.459,10.255,30.607,43.129,70.881,1249.0,-0.029105,266.08,0.20525,liquid,CO2,C124389,carbon-dioxide,304.18,73.8,10.6,0.09433962264150944,0.9,18.067750677506776,0.0003812502
273.76,1335.9,27809.0,3.596e-05,5.4562,10.26,30.593,43.134,70.873,1249.7,-0.029121,266.34,0.20537,liquid,CO2,C124389,carbon-dioxide,304.18,73.8,10.6,0.09433962264150944,0.9,18.101626016260166,0.000381176
273.76,1338.3,27815.0,3.5952e-05,5.4535,10.265,30.58,43.139,70.866,1250.5,-0.029137,266.6,0.2055,liquid,CO2,C124389,carbon-dioxide,304.18,73.8,10.6,0.09433962264150944,0.9,18.134146341463413,0.0003810911999999999
273.76,1340.8,27821.0,3.5944e-05,5.4507,10.27,30.566,43.144,70.858,1251.2,-0.029154,266.86,0.20562,liquid,CO2,C124389,carbon-dioxide,304.18,73.8,10.6,0.09433962264150944,0.9,18.168021680216803,0.00038100639999999995
273.76,1343.2,27827.0,3.5937e-05,5.448,10.275,30.552,43.149,70.851,1251.9,-0.02917,267.12,0.20574,liquid,CO2,C124389,carbon-dioxide,304.18,73.8,10.6,0.09433962264150944,0.9,18.200542005420054,0.00038093219999999996
273.76,1345.7,27832.0,3.5929e-05,5.4453,10.28,30.539,43.155,70.843,1252.6,-0.029186,267.38,0.20587,liquid,CO2,C124389,carbon-dioxide,304.18,73.8,10.6,0.09433962264150944,0.9,18.234417344173444,0.0003808474
273.76,1348.2,27838.0,3.5922e-05,5.4425,10.285,30.525,43.16,70.836,1253.3,-0.029203,267.64,0.20599,liquid,CO2,C124389,carbon-dioxide,304.18,73.8,10.6,0.09433962264150944,0.9,18.26829268292683,0.00038077319999999995
273.76,1350.6,27844.0,3.5914e-05,5.4398,10.29,30.511,43.165,70.829,1254.0,-0.029219,267.9,0.20611,liquid,CO2,C124389,carbon-dioxide,304.18,73.8,10.6,0.09433962264150944,0.9,18.30081300813008,0.0003806884
273.76,1353.1,27850.0,3.5907e-05,5.4371,10.296,30.498,43.17,70.822,1254.7,-0.029235,268.16,0.20624,liquid,CO2,C124389,carbon-dioxide,304.18,73.8,10.6,0.09433962264150944,0.9,18.334688346883468,0.0003806142
273.76,1355.5,27856.0,3.5899e-05,5.4343,10.301,30.484,43.175,70.814,1255.4,-0.029251,268.42,0.20636,liquid,CO2,C124389,carbon-dioxide,304.18,73.8,10.6,0.09433962264150944,0.9,18.367208672086722,0.00038052940000000003
273.76,1358.0,27862.0,3.5892e-05,5.4316,10.306,30.47,43.18,70.807,1256.1,-0.029267,268.67,0.20648,liquid,CO2,C124389,carbon-dioxide,304.18,73.8,10.6,0.09433962264150944,0.9,18.40108401084011,0.0003804552
273.76,1360.5,27867.0,3.5884e-05,5.4289,10.311,30.457,43.185,70.8,1256.8,-0.029283,268.93,0.2066,liquid,CO2,C124389,carbon-dioxide,304.18,73.8,10.6,0.09433962264150944,0.9,18.4349593495935,0.00038037039999999997
273.76,1362.9,27873.0,3.5877e-05,5.4262,10.316,30.443,43.19,70.793,1257.5,-0.029299,269.19,0.20673,liquid,CO2,C124389,carbon-dioxide,304.18,73.8,10.6,0.09433962264150944,0.9,18.46747967479675,0.0003802962
273.76,1365.4,27879.0,3.5869e-05,5.4235,10.321,30.429,43.195,70.786,1258.2,-0.029314,269.45,0.20685,liquid,CO2,C124389,carbon-dioxide,304.18,73.8,10.6,0.09433962264150944,0.9,18.50135501355014,0.00038021139999999996
273.76,1367.8,27885.0,3.5862e-05,5.4208,10.326,30.416,43.2,70.779,1258.9,-0.02933,269.71,0.20697,liquid,CO2,C124389,carbon-dioxide,304.18,73.8,10.6,0.09433962264150944,0.9,18.533875338753386,0.0003801372