Temperature (K),Pressure (bar),Density (mol/m3),Volume (m3/mol),Internal Energy (kJ/mol),Enthalpy (kJ/mol),Entropy (J/mol*K),Cv (J/mol*K),Cp (J/mol*K),Sound Spd. (m/s),Joule-Thomson (K/bar),Viscosity (uPa*s),Therm. Cond. (W/m*K),Phase,substance,substance_id,substance_name,Tc,Pc,rhoc,Vmc,Tr,Pr,Vmr
905.8,3493.5,39068.0,2.5597e-05,40.519,49.461,81.57,46.119,69.941,1469.6,-0.0030355,92.845,0.61706,supercritical,H2O,C7732185,water,647.0,220.64,17.9,0.0558659217877095,1.4,15.833484408992025,0.00045818629999999996
905.8,3500.8,39096.0,2.5578e-05,40.508,49.462,81.551,46.124,69.917,1471.1,-0.0030957,92.923,0.61777,supercritical,H2O,C7732185,water,647.0,220.64,17.9,0.0558659217877095,1.4,15.866569978245106,0.0004578462
905.8,3508.2,39125.0,2.5559e-05,40.497,49.464,81.532,46.128,69.893,1472.6,-0.0031556,93.001,0.61847,supercritical,H2O,C7732185,water,647.0,220.64,17.9,0.0558659217877095,1.4,15.900108774474257,0.0004575061
905.8,3515.5,39153.0,2.5541e-05,40.487,49.465,81.513,46.133,69.87,1474.1,-0.0032152,93.078,0.61918,supercritical,H2O,C7732185,water,647.0,220.64,17.9,0.0558659217877095,1.4,15.93319434372734,0.0004571839
905.8,3522.9,39182.0,2.5522e-05,40.476,49.467,81.494,46.138,69.847,1475.6,-0.0032744,93.156,0.61988,supercritical,H2O,C7732185,water,647.0,220.64,17.9,0.0558659217877095,1.4,15.966733139956492,0.00045684379999999996
905.8,3530.2,39210.0,2.5504e-05,40.466,49.469,81.476,46.143,69.823,1477.1,-0.0033334,93.233,0.62059,supercritical,H2O,C7732185,water,647.0,220.64,17.9,0.0558659217877095,1.4,15.999818709209572,0.0004565215999999999
905.8,3537.5,39238.0,2.5485e-05,40.455,49.471,81.457,46.147,69.8,1478.6,-0.003392,93.31,0.62129,supercritical,H2O,C7732185,water,647.0,220.64,17.9,0.0558659217877095,1.4,16.032904278462656,0.0004561815
905.8,3544.9,39266.0,2.5467e-05,40.445,49.472,81.438,46.152,69.777,1480.0,-0.0034504,93.387,0.622,supercritical,H2O,C7732185,water,647.0,220.64,17.9,0.0558659217877095,1.4,16.066443074691808,0.00045585929999999997
905.8,3552.2,39295.0,2.5449e-05,40.434,49.474,81.419,46.157,69.754,1481.5,-0.0035085,93.464,0.6227,supercritical,H2O,C7732185,water,647.0,220.64,17.9,0.0558659217877095,1.4,16.099528643944886,0.0004555371
905.8,3559.6,39323.0,2.5431e-05,40.424,49.476,81.401,46.161,69.731,1483.0,-0.0035662,93.54,0.6234,supercritical,H2O,C7732185,water,647.0,220.64,17.9,0.0558659217877095,1.4,16.133067440174038,0.0004552149
905.8,3566.9,39351.0,2.5413e-05,40.413,49.478,81.382,46.166,69.708,1484.5,-0.0036237,93.617,0.6241,supercritical,H2O,C7732185,water,647.0,220.64,17.9,0.0558659217877095,1.4,16.166153009427124,0.00045489269999999995
905.8,3574.3,39379.0,2.5395e-05,40.403,49.48,81.364,46.171,69.686,1485.9,-0.0036809,93.693,0.6248,supercritical,H2O,C7732185,water,647.0,220.64,17.9,0.0558659217877095,1.4,16.199691805656276,0.00045457049999999996
905.8,3581.6,39406.0,2.5377e-05,40.393,49.482,81.345,46.176,69.663,1487.4,-0.0037378,93.769,0.6255,supercritical,H2O,C7732185,water,647.0,220.64,17.9,0.0558659217877095,1.4,16.232777374909354,0.00045424829999999997
905.8,3589.0,39434.0,2.5359e-05,40.382,49.483,81.327,46.18,69.64,1488.9,-0.0037944,93.845,0.6262,supercritical,H2O,C7732185,water,647.0,220.64,17.9,0.0558659217877095,1.4,16.266316171138506,0.00045392609999999993
905.8,3596.3,39462.0,2.5341e-05,40.372,49.485,81.308,46.185,69.618,1490.3,-0.0038507,93.921,0.6269,supercritical,H2O,C7732185,water,647.0,220.64,17.9,0.0558659217877095,1.4,16.29940174039159,0.0004536039
905.8,3603.7,39490.0,2.5323e-05,40.362,49.487,81.29,46.19,69.596,1491.8,-0.0039067,93.997,0.6276,supercritical,H2O,C7732185,water,647.0,220.64,17.9,0.0558659217877095,1.4,16.33294053662074,0.0004532817
905.8,3611.0,39517.0,2.5306e-05,40.352,49.489,81.272,46.194,69.573,1493.2,-0.0039624,94.072,0.62829,supercritical,H2O,C7732185,water,647.0,220.64,17.9,0.0558659217877095,1.4,16.36602610587382,0.0004529774
905.8,3618.4,39545.0,2.5288e-05,40.341,49.491,81.253,46.199,69.551,1494.7,-0.0040179,94.148,0.62899,supercritical,H2O,C7732185,water,647.0,220.64,17.9,0.0558659217877095,1.4,16.399564902102973,0.00045265519999999996
905.8,3625.7,39572.0,2.527e-05,40.331,49.494,81.235,46.204,69.529,1496.2,-0.0040731,94.223,0.62969,supercritical,H2O,C7732185,water,647.0,220.64,17.9,0.0558659217877095,1.4,16.432650471356055,0.00045233299999999997
905.8,3633.1,39599.0,2.5253e-05,40.321,49.496,81.217,46.208,69.507,1497.6,-0.004128,94.298,0.63038,supercritical,H2O,C7732185,water,647.0,220.64,17.9,0.0558659217877095,1.4,16.466189267585207,0.00045202869999999996
905.8,3640.4,39627.0,2.5235e-05,40.311,49.498,81.199,46.213,69.485,1499.1,-0.0041827,94.373,0.63107,supercritical,H2O,C7732185,water,647.0,220.64,17.9,0.0558659217877095,1.4,16.49927483683829,0.0004517065
905.8,3647.8,39654.0,2.5218e-05,40.301,49.5,81.181,46.218,69.463,1500.5,-0.004237,94.448,0.63177,supercritical,H2O,C7732185,water,647.0,220.64,17.9,0.0558659217877095,1.4,16.53281363306744,0.0004514022
905.8,3655.1,39681.0,2.5201e-05,40.291,49.502,81.163,46.222,69.442,1502.0,-0.0042911,94.522,0.63246,supercritical,H2O,C7732185,water,647.0,220.64,17.9,0.0558659217877095,1.4,16.565899202320523,0.0004510979
905.8,3662.5,39708.0,2.5184e-05,40.281,49.504,81.145,46.227,69.42,1503.4,-0.004345,94.597,0.63315,supercritical,H2O,C7732185,water,647.0,220.64,17.9,0.0558659217877095,1.4,16.599437998549675,0.0004507936
905.8,3669.8,39735.0,2.5166e-05,40.271,49.506,81.127,46.232,69.398,1504.8,-0.0043985,94.671,0.63384,supercritical,H2O,C7732185,water,647.0,220.64,17.9,0.0558659217877095,1.4,16.632523567802757,0.00045047139999999995
905.8,3677.2,39762.0,2.5149e-05,40.261,49.509,81.109,46.236,69.377,1506.3,-0.0044518,94.745,0.63453,supercritical,H2O,C7732185,water,647.0,220.64,17.9,0.0558659217877095,1.4,16.66606236403191,0.00045016709999999994
905.8,3684.5,39789.0,2.5132e-05,40.251,49.511,81.091,46.241,69.356,1507.7,-0.0045049,94.819,0.63522,supercritical,H2O,C7732185,water,647.0,220.64,17.9,0.0558659217877095,1.4,16.69914793328499,0.0004498628
905.8,3691.9,39816.0,2.5115e-05,40.241,49.513,81.073,46.245,69.334,1509.2,-0.0045576,94.893,0.63591,supercritical,H2O,C7732185,water,647.0,220.64,17.9,0.0558659217877095,1.4,16.732686729514143,0.0004495585
905.8,3699.2,39843.0,2.5098e-05,40.231,49.516,81.055,46.25,69.313,1510.6,-0.0046102,94.967,0.6366,supercritical,H2O,C7732185,water,647.0,220.64,17.9,0.0558659217877095,1.4,16.765772298767224,0.00044925419999999997
905.8,3706.6,39870.0,2.5082e-05,40.221,49.518,81.037,46.255,69.292,1512.0,-0.0046624,95.04,0.63729,supercritical,H2O,C7732185,water,647.0,220.64,17.9,0.0558659217877095,1.4,16.799311094996376,0.0004489678
905.8,3713.9,39897.0,2.5065e-05,40.212,49.52,81.02,46.259,69.271,1513.5,-0.0047144,95.114,0.63798,supercritical,H2O,C7732185,water,647.0,220.64,17.9,0.0558659217877095,1.4,16.83239666424946,0.0004486635
905.8,3721.3,39923.0,2.5048e-05,40.202,49.523,81.002,46.264,69.25,1514.9,-0.0047662,95.187,0.63866,supercritical,H2O,C7732185,water,647.0,220.64,17.9,0.0558659217877095,1.4,16.86593546047861,0.0004483592
905.8,3728.6,39950.0,2.5031e-05,40.192,49.525,80.984,46.269,69.229,1516.3,-0.0048177,95.26,0.63935,supercritical,H2O,C7732185,water,647.0,220.64,17.9,0.0558659217877095,1.4,16.89902102973169,0.0004480549
905.8,3736.0,39976.0,2.5015e-05,40.182,49.528,80.967,46.273,69.208,1517.7,-0.0048689,95.333,0.64004,supercritical,H2O,C7732185,water,647.0,220.64,17.9,0.0558659217877095,1.4,16.93255982596084,0.0004477685
905.8,3743.3,40003.0,2.4998e-05,40.173,49.53,80.949,46.278,69.187,1519.2,-0.0049199,95.405,0.64072,supercritical,H2O,C7732185,water,647.0,220.64,17.9,0.0558659217877095,1.4,16.965645395213926,0.00044746419999999997
905.8,3750.6,40029.0,2.4982e-05,40.163,49.533,80.932,46.282,69.167,1520.6,-0.0049706,95.478,0.64141,supercritical,H2O,C7732185,water,647.0,220.64,17.9,0.0558659217877095,1.4,16.998730964467004,0.00044717779999999994
905.8,3758.0,40055.0,2.4965e-05,40.153,49.535,80.914,46.287,69.146,1522.0,-0.0050211,95.55,0.64209,supercritical,H2O,C7732185,water,647.0,220.64,17.9,0.0558659217877095,1.4,17.032269760696156,0.00044687349999999993
905.8,3765.3,40082.0,2.4949e-05,40.144,49.538,80.897,46.292,69.126,1523.4,-0.0050714,95.623,0.64277,supercritical,H2O,C7732185,water,647.0,220.64,17.9,0.0558659217877095,1.4,17.06535532994924,0.0004465871
905.8,3772.7,40108.0,2.4933e-05,40.134,49.54,80.88,46.296,69.105,1524.8,-0.0051214,95.695,0.64345,supercritical,H2O,C7732185,water,647.0,220.64,17.9,0.0558659217877095,1.4,17.09889412617839,0.0004463007
905.8,3780.0,40134.0,2.4916e-05,40.125,49.543,80.862,46.301,69.085,1526.2,-0.0051712,95.767,0.64414,supercritical,H2O,C7732185,water,647.0,220.64,17.9,0.0558659217877095,1.4,17.131979695431472,0.00044599639999999996
905.8,3787.4,40160.0,2.49e-05,40.115,49.546,80.845,46.305,69.065,1527.7,-0.0052207,95.839,0.64482,supercritical,H2O,C7732185,water,647.0,220.64,17.9,0.0558659217877095,1.4,17.165518491660624,0.00044570999999999993
905.8,3794.7,40186.0,2.4884e-05,40.105,49.548,80.828,46.31,69.045,1529.1,-0.00527,95.91,0.6455,supercritical,H2O,C7732185,water,647.0,220.64,17.9,0.0558659217877095,1.4,17.198604060913706,0.0004454236
905.8,3802.1,40212.0,2.4868e-05,40.096,49.551,80.811,46.314,69.025,1530.5,-0.0053191,95.982,0.64618,supercritical,H2O,C7732185,water,647.0,220.64,17.9,0.0558659217877095,1.4,17.232142857142858,0.0004451372
905.8,3809.4,40238.0,2.4852e-05,40.087,49.554,80.793,46.319,69.005,1531.9,-0.0053679,96.053,0.64685,supercritical,H2O,C7732185,water,647.0,220.64,17.9,0.0558659217877095,1.4,17.26522842639594,0.00044485079999999995
905.8,3816.8,40264.0,2.4836e-05,40.077,49.556,80.776,46.324,68.985,1533.3,-0.0054165,96.125,0.64753,supercritical,H2O,C7732185,water,647.0,220.64,17.9,0.0558659217877095,1.4,17.29876722262509,0.00044456439999999997
905.8,3824.1,40290.0,2.482e-05,40.068,49.559,80.759,46.328,68.965,1534.7,-0.0054648,96.196,0.64821,supercritical,H2O,C7732185,water,647.0,220.64,17.9,0.0558659217877095,1.4,17.331852791878173,0.000444278
905.8,3831.5,40316.0,2.4804e-05,40.058,49.562,80.742,46.333,68.945,1536.1,-0.005513,96.267,0.64889,supercritical,H2O,C7732185,water,647.0,220.64,17.9,0.0558659217877095,1.4,17.365391588107325,0.00044399159999999996
905.8,3838.8,40341.0,2.4789e-05,40.049,49.565,80.725,46.337,68.925,1537.5,-0.0055608,96.337,0.64956,supercritical,H2O,C7732185,water,647.0,220.64,17.9,0.0558659217877095,1.4,17.398477157360407,0.00044372309999999996
905.8,3846.2,40367.0,2.4773e-05,40.04,49.568,80.708,46.342,68.906,1538.9,-0.0056085,96.408,0.65024,supercritical,H2O,C7732185,water,647.0,220.64,17.9,0.0558659217877095,1.4,17.43201595358956,0.0004434367
905.8,3853.5,40392.0,2.4757e-05,40.03,49.571,80.691,46.346,68.886,1540.3,-0.005656,96.478,0.65092,supercritical,H2O,C7732185,water,647.0,220.64,17.9,0.0558659217877095,1.4,17.46510152284264,0.00044315029999999995
905.8,3860.9,40418.0,2.4741e-05,40.021,49.573,80.674,46.351,68.867,1541.7,-0.0057032,96.549,0.65159,supercritical,H2O,C7732185,water,647.0,220.64,17.9,0.0558659217877095,1.4,17.498640319071793,0.0004428639
905.8,3868.2,40443.0,2.4726e-05,40.012,49.576,80.657,46.355,68.847,1543.1,-0.0057502,96.619,0.65226,supercritical,H2O,C7732185,water,647.0,220.64,17.9,0.0558659217877095,1.4,17.531725888324875,0.0004425954
905.8,3875.6,40469.0,2.471e-05,40.003,49.579,80.641,46.36,68.828,1544.4,-0.0057969,96.689,0.65294,supercritical,H2O,C7732185,water,647.0,220.64,17.9,0.0558659217877095,1.4,17.565264684554027,0.00044230899999999994
905.8,3882.9,40494.0,2.4695e-05,39.993,49.582,80.624,46.364,68.809,1545.8,-0.0058435,96.759,0.65361,supercritical,H2O,C7732185,water,647.0,220.64,17.9,0.0558659217877095,1.4,17.59835025380711,0.00044204049999999994
905.8,3890.3,40520.0,2.4679e-05,39.984,49.585,80.607,46.369,68.79,1547.2,-0.0058898,96.829,0.65428,supercritical,H2O,C7732185,water,647.0,220.64,17.9,0.0558659217877095,1.4,17.63188905003626,0.00044175409999999997
905.8,3897.6,40545.0,2.4664e-05,39.975,49.588,80.59,46.373,68.77,1548.6,-0.005936,96.898,0.65495,supercritical,H2O,C7732185,water,647.0,220.64,17.9,0.0558659217877095,1.4,17.664974619289342,0.00044148559999999997
905.8,3905.0,40570.0,2.4649e-05,39.966,49.591,80.574,46.378,68.751,1550.0,-0.0059819,96.968,0.65562,supercritical,H2O,C7732185,water,647.0,220.64,17.9,0.0558659217877095,1.4,17.698513415518494,0.00044121709999999997
905.8,3912.3,40595.0,2.4633e-05,39.957,49.594,80.557,46.382,68.732,1551.4,-0.0060275,97.037,0.65629,supercritical,H2O,C7732185,water,647.0,220.64,17.9,0.0558659217877095,1.4,17.731598984771576,0.00044093069999999994
905.8,3919.7,40620.0,2.4618e-05,39.948,49.597,80.54,46.387,68.714,1552.7,-0.006073,97.106,0.65696,supercritical,H2O,C7732185,water,647.0,220.64,17.9,0.0558659217877095,1.4,17.765137781000725,0.0004406622
905.8,3927.0,40645.0,2.4603e-05,39.939,49.6,80.524,46.391,68.695,1554.1,-0.0061183,97.175,0.65763,supercritical,H2O,C7732185,water,647.0,220.64,17.9,0.0558659217877095,1.4,17.798223350253807,0.0004403937
905.8,3934.4,40670.0,2.4588e-05,39.93,49.603,80.507,46.396,68.676,1555.5,-0.0061633,97.244,0.6583,supercritical,H2O,C7732185,water,647.0,220.64,17.9,0.0558659217877095,1.4,17.83176214648296,0.00044012519999999994
905.8,3941.7,40695.0,2.4573e-05,39.921,49.606,80.491,46.4,68.657,1556.9,-0.0062082,97.312,0.65897,supercritical,H2O,C7732185,water,647.0,220.64,17.9,0.0558659217877095,1.4,17.86484771573604,0.0004398567
905.8,3949.1,40720.0,2.4558e-05,39.912,49.61,80.474,46.405,68.639,1558.2,-0.0062528,97.381,0.65964,supercritical,H2O,C7732185,water,647.0,220.64,17.9,0.0558659217877095,1.4,17.898386511965192,0.0004395882
905.8,3956.4,40745.0,2.4543e-05,39.903,49.613,80.458,46.409,68.62,1559.6,-0.0062972,97.449,0.6603,supercritical,H2O,C7732185,water,647.0,220.64,17.9,0.0558659217877095,1.4,17.931472081218274,0.00043931969999999994
905.8,3963.8,40770.0,2.4528e-05,39.894,49.616,80.441,46.414,68.602,1561.0,-0.0063414,97.518,0.66097,supercritical,H2O,C7732185,water,647.0,220.64,17.9,0.0558659217877095,1.4,17.965010877447426,0.00043905119999999994
905.8,3971.1,40794.0,2.4513e-05,39.885,49.619,80.425,46.418,68.583,1562.3,-0.0063855,97.586,0.66163,supercritical,H2O,C7732185,water,647.0,220.64,17.9,0.0558659217877095,1.4,17.998096446700508,0.0004387827
905.8,3978.4,40819.0,2.4498e-05,39.876,49.622,80.409,46.423,68.565,1563.7,-0.0064293,97.654,0.6623,supercritical,H2O,C7732185,water,647.0,220.64,17.9,0.0558659217877095,1.4,18.03118201595359,0.0004385142
905.8,3985.8,40844.0,2.4484e-05,39.867,49.626,80.393,46.427,68.547,1565.0,-0.0064729,97.722,0.66296,supercritical,H2O,C7732185,water,647.0,220.64,17.9,0.0558659217877095,1.4,18.064720812182742,0.0004382636
905.8,3993.1,40868.0,2.4469e-05,39.858,49.629,80.376,46.432,68.529,1566.4,-0.0065163,97.789,0.66363,supercritical,H2O,C7732185,water,647.0,220.64,17.9,0.0558659217877095,1.4,18.097806381435824,0.0004379951
905.8,4000.5,40893.0,2.4454e-05,39.849,49.632,80.36,46.436,68.511,1567.8,-0.0065595,97.857,0.66429,supercritical,H2O,C7732185,water,647.0,220.64,17.9,0.0558659217877095,1.4,18.131345177664976,0.0004377266
905.8,4007.8,40917.0,2.444e-05,39.841,49.636,80.344,46.44,68.492,1569.1,-0.0066025,97.924,0.66495,supercritical,H2O,C7732185,water,647.0,220.64,17.9,0.0558659217877095,1.4,18.164430746918057,0.00043747599999999996
905.8,4015.2,40942.0,2.4425e-05,39.832,49.639,80.328,46.445,68.475,1570.5,-0.0066453,97.991,0.66562,supercritical,H2O,C7732185,water,647.0,220.64,17.9,0.0558659217877095,1.4,18.19796954314721,0.0004372075
905.8,4022.5,40966.0,2.4411e-05,39.823,49.642,80.312,46.449,68.457,1571.8,-0.0066879,98.058,0.66628,supercritical,H2O,C7732185,water,647.0,220.64,17.9,0.0558659217877095,1.4,18.23105511240029,0.0004369569
905.8,4029.9,40990.0,2.4396e-05,39.814,49.646,80.296,46.454,68.439,1573.2,-0.0067304,98.125,0.66694,supercritical,H2O,C7732185,water,647.0,220.64,17.9,0.0558659217877095,1.4,18.264593908629443,0.0004366884
905.8,4037.2,41015.0,2.4382e-05,39.806,49.649,80.28,46.458,68.421,1574.5,-0.0067726,98.192,0.6676,supercritical,H2O,C7732185,water,647.0,220.64,17.9,0.0558659217877095,1.4,18.297679477882525,0.00043643779999999997
905.8,4044.6,41039.0,2.4367e-05,39.797,49.652,80.264,46.463,68.403,1575.9,-0.0068147,98.259,0.66826,supercritical,H2O,C7732185,water,647.0,220.64,17.9,0.0558659217877095,1.4,18.331218274111677,0.00043616929999999997
905.8,4051.9,41063.0,2.4353e-05,39.788,49.656,80.248,46.467,68.386,1577.2,-0.0068565,98.325,0.66892,supercritical,H2O,C7732185,water,647.0,220.64,17.9,0.0558659217877095,1.4,18.36430384336476,0.00043591869999999995
905.8,4059.3,41087.0,2.4339e-05,39.78,49.659,80.232,46.471,68.368,1578.6,-0.0068982,98.392,0.66957,supercritical,H2O,C7732185,water,647.0,220.64,17.9,0.0558659217877095,1.4,18.39784263959391,0.00043566809999999993
905.8,4066.6,41111.0,2.4324e-05,39.771,49.663,80.216,46.476,68.351,1579.9,-0.0069396,98.458,0.67023,supercritical,H2O,C7732185,water,647.0,220.64,17.9,0.0558659217877095,1.4,18.430928208846993,0.0004353996
905.8,4074.0,41135.0,2.431e-05,39.762,49.666,80.2,46.48,68.333,1581.2,-0.0069809,98.524,0.67089,supercritical,H2O,C7732185,water,647.0,220.64,17.9,0.0558659217877095,1.4,18.464467005076145,0.00043514899999999996
905.8,4081.3,41159.0,2.4296e-05,39.754,49.67,80.184,46.485,68.316,1582.6,-0.007022,98.59,0.67155,supercritical,H2O,C7732185,water,647.0,220.64,17.9,0.0558659217877095,1.4,18.497552574329227,0.00043489839999999994
905.8,4088.7,41183.0,2.4282e-05,39.745,49.673,80.168,46.489,68.298,1583.9,-0.0070629,98.656,0.6722,supercritical,H2O,C7732185,water,647.0,220.64,17.9,0.0558659217877095,1.4,18.531091370558375,0.0004346478
905.8,4096.0,41207.0,2.4268e-05,39.737,49.677,80.152,46.493,68.281,1585.3,-0.0071037,98.721,0.67286,supercritical,H2O,C7732185,water,647.0,220.64,17.9,0.0558659217877095,1.4,18.56417693981146,0.00043439719999999995
905.8,4103.4,41231.0,2.4254e-05,39.728,49.68,80.137,46.498,68.264,1586.6,-0.0071442,98.787,0.67351,supercritical,H2O,C7732185,water,647.0,220.64,17.9,0.0558659217877095,1.4,18.59771573604061,0.00043414659999999993
905.8,4110.7,41254.0,2.424e-05,39.72,49.684,80.121,46.502,68.247,1587.9,-0.0071846,98.852,0.67417,supercritical,H2O,C7732185,water,647.0,220.64,17.9,0.0558659217877095,1.4,18.63080130529369,0.00043389599999999997
905.8,4118.1,41278.0,2.4226e-05,39.711,49.688,80.105,46.507,68.23,1589.2,-0.0072248,98.917,0.67482,supercritical,H2O,C7732185,water,647.0,220.64,17.9,0.0558659217877095,1.4,18.664340101522846,0.0004336454
905.8,4125.4,41302.0,2.4212e-05,39.703,49.691,80.09,46.511,68.213,1590.6,-0.0072648,98.982,0.67548,supercritical,H2O,C7732185,water,647.0,220.64,17.9,0.0558659217877095,1.4,18.697425670775925,0.0004333948
905.8,4132.8,41325.0,2.4198e-05,39.694,49.695,80.074,46.515,68.196,1591.9,-0.0073046,99.047,0.67613,supercritical,H2O,C7732185,water,647.0,220.64,17.9,0.0558659217877095,1.4,18.730964467005077,0.0004331442
905.8,4140.1,41349.0,2.4184e-05,39.686,49.699,80.059,46.52,68.179,1593.2,-0.0073442,99.112,0.67678,supercritical,H2O,C7732185,water,647.0,220.64,17.9,0.0558659217877095,1.4,18.764050036258162,0.0004328936
905.8,4147.5,41372.0,2.4171e-05,39.678,49.702,80.043,46.524,68.162,1594.5,-0.0073837,99.177,0.67743,supercritical,H2O,C7732185,water,647.0,220.64,17.9,0.0558659217877095,1.4,18.79758883248731,0.00043266089999999995
905.8,4154.8,41396.0,2.4157e-05,39.669,49.706,80.027,46.528,68.146,1595.9,-0.007423,99.241,0.67808,supercritical,H2O,C7732185,water,647.0,220.64,17.9,0.0558659217877095,1.4,18.830674401740392,0.0004324103
905.8,4162.2,41419.0,2.4143e-05,39.661,49.71,80.012,46.533,68.129,1597.2,-0.0074621,99.306,0.67873,supercritical,H2O,C7732185,water,647.0,220.64,17.9,0.0558659217877095,1.4,18.864213197969544,0.00043215969999999996
905.8,4169.5,41443.0,2.413e-05,39.653,49.713,79.997,46.537,68.112,1598.5,-0.0075011,99.37,0.67938,supercritical,H2O,C7732185,water,647.0,220.64,17.9,0.0558659217877095,1.4,18.897298767222626,0.00043192699999999997
905.8,4176.9,41466.0,2.4116e-05,39.644,49.717,79.981,46.541,68.096,1599.8,-0.0075399,99.434,0.68003,supercritical,H2O,C7732185,water,647.0,220.64,17.9,0.0558659217877095,1.4,18.930837563451774,0.0004316764