Temperature (K),Pressure (bar),Density (mol/m3),Volume (m3/mol),Internal Energy (kJ/mol),Enthalpy (kJ/mol),Entropy (J/mol*K),Cv (J/mol*K),Cp (J/mol*K),Sound Spd. (m/s),Joule-Thomson (K/bar),Viscosity (uPa*s),Therm. Cond. (W/m*K),Phase,substance,substance_id,substance_name,Tc,Pc,rhoc,Vmc,Tr,Pr,Vmr
711.7,2097.3,42306.0,2.3637e-05,30.101,35.059,67.925,49.171,75.94,1397.9,-0.0026691,98.21,0.63495,supercritical,H2O,C7732185,water,647.0,220.64,17.9,0.0558659217877095,1.1,9.50552936910805,0.0004231023
711.7,2104.6,42339.0,2.3619e-05,30.089,35.06,67.903,49.173,75.889,1399.9,-0.0027479,98.322,0.63572,supercritical,H2O,C7732185,water,647.0,220.64,17.9,0.0558659217877095,1.1,9.538614938361132,0.00042278009999999997
711.7,2112.0,42371.0,2.3601e-05,30.077,35.062,67.881,49.175,75.839,1401.9,-0.0028261,98.433,0.63649,supercritical,H2O,C7732185,water,647.0,220.64,17.9,0.0558659217877095,1.1,9.572153734590284,0.0004224579
711.7,2119.3,42403.0,2.3583e-05,30.065,35.063,67.859,49.177,75.79,1403.9,-0.0029038,98.544,0.63726,supercritical,H2O,C7732185,water,647.0,220.64,17.9,0.0558659217877095,1.1,9.605239303843366,0.0004221357
711.7,2126.7,42434.0,2.3566e-05,30.053,35.065,67.837,49.179,75.74,1405.9,-0.0029808,98.655,0.63802,supercritical,H2O,C7732185,water,647.0,220.64,17.9,0.0558659217877095,1.1,9.638778100072516,0.0004218314
711.7,2134.0,42466.0,2.3548e-05,30.041,35.067,67.815,49.181,75.691,1408.0,-0.0030573,98.765,0.63879,supercritical,H2O,C7732185,water,647.0,220.64,17.9,0.0558659217877095,1.1,9.6718636693256,0.00042150919999999994
711.7,2141.4,42498.0,2.3531e-05,30.03,35.068,67.793,49.183,75.642,1410.0,-0.0031332,98.876,0.63955,supercritical,H2O,C7732185,water,647.0,220.64,17.9,0.0558659217877095,1.1,9.705402465554752,0.00042120489999999993
711.7,2148.7,42529.0,2.3513e-05,30.018,35.07,67.771,49.184,75.594,1412.0,-0.0032085,98.986,0.64032,supercritical,H2O,C7732185,water,647.0,220.64,17.9,0.0558659217877095,1.1,9.738488034807832,0.0004208827
711.7,2156.1,42561.0,2.3496e-05,30.006,35.072,67.749,49.186,75.546,1413.9,-0.0032833,99.096,0.64108,supercritical,H2O,C7732185,water,647.0,220.64,17.9,0.0558659217877095,1.1,9.772026831036984,0.0004205784
711.7,2163.4,42592.0,2.3479e-05,29.994,35.074,67.728,49.189,75.498,1415.9,-0.0033575,99.205,0.64184,supercritical,H2O,C7732185,water,647.0,220.64,17.9,0.0558659217877095,1.1,9.805112400290067,0.0004202741
711.7,2170.8,42623.0,2.3461e-05,29.983,35.076,67.706,49.191,75.451,1417.9,-0.0034312,99.315,0.6426,supercritical,H2O,C7732185,water,647.0,220.64,17.9,0.0558659217877095,1.1,9.838651196519217,0.0004199519
711.7,2178.1,42654.0,2.3444e-05,29.971,35.078,67.685,49.193,75.404,1419.9,-0.0035044,99.424,0.64335,supercritical,H2O,C7732185,water,647.0,220.64,17.9,0.0558659217877095,1.1,9.8717367657723,0.0004196476
711.7,2185.5,42685.0,2.3427e-05,29.96,35.08,67.663,49.195,75.357,1421.9,-0.003577,99.533,0.64411,supercritical,H2O,C7732185,water,647.0,220.64,17.9,0.0558659217877095,1.1,9.905275562001451,0.0004193433
711.7,2192.8,42716.0,2.341e-05,29.948,35.082,67.642,49.197,75.311,1423.8,-0.0036491,99.641,0.64486,supercritical,H2O,C7732185,water,647.0,220.64,17.9,0.0558659217877095,1.1,9.938361131254533,0.000419039
711.7,2200.2,42747.0,2.3394e-05,29.937,35.084,67.62,49.199,75.265,1425.8,-0.0037206,99.749,0.64562,supercritical,H2O,C7732185,water,647.0,220.64,17.9,0.0558659217877095,1.1,9.971899927483683,0.0004187526
711.7,2207.5,42777.0,2.3377e-05,29.925,35.086,67.599,49.201,75.219,1427.7,-0.0037917,99.858,0.64637,supercritical,H2O,C7732185,water,647.0,220.64,17.9,0.0558659217877095,1.1,10.004985496736767,0.00041844829999999997
711.7,2214.8,42808.0,2.336e-05,29.914,35.088,67.578,49.203,75.173,1429.7,-0.0038622,99.965,0.64712,supercritical,H2O,C7732185,water,647.0,220.64,17.9,0.0558659217877095,1.1,10.038071065989849,0.00041814399999999996
711.7,2222.2,42838.0,2.3344e-05,29.902,35.09,67.557,49.205,75.128,1431.6,-0.0039322,100.07,0.64787,supercritical,H2O,C7732185,water,647.0,220.64,17.9,0.0558659217877095,1.1,10.071609862218999,0.00041785759999999993
711.7,2229.5,42869.0,2.3327e-05,29.891,35.092,67.536,49.207,75.083,1433.6,-0.0040018,100.18,0.64862,supercritical,H2O,C7732185,water,647.0,220.64,17.9,0.0558659217877095,1.1,10.104695431472082,0.00041755329999999997
711.7,2236.9,42899.0,2.3311e-05,29.88,35.094,67.515,49.209,75.039,1435.5,-0.0040708,100.29,0.64936,supercritical,H2O,C7732185,water,647.0,220.64,17.9,0.0558659217877095,1.1,10.138234227701235,0.0004172669
711.7,2244.2,42929.0,2.3294e-05,29.869,35.097,67.494,49.211,74.994,1437.5,-0.0041394,100.39,0.65011,supercritical,H2O,C7732185,water,647.0,220.64,17.9,0.0558659217877095,1.1,10.171319796954315,0.0004169626
711.7,2251.6,42959.0,2.3278e-05,29.858,35.099,67.473,49.213,74.95,1439.4,-0.0042074,100.5,0.65085,supercritical,H2O,C7732185,water,647.0,220.64,17.9,0.0558659217877095,1.1,10.204858593183467,0.00041667619999999995
711.7,2258.9,42989.0,2.3262e-05,29.847,35.101,67.453,49.215,74.907,1441.3,-0.004275,100.61,0.6516,supercritical,H2O,C7732185,water,647.0,220.64,17.9,0.0558659217877095,1.1,10.23794416243655,0.0004163897999999999
711.7,2266.3,43019.0,2.3246e-05,29.835,35.104,67.432,49.218,74.863,1443.2,-0.0043421,100.71,0.65234,supercritical,H2O,C7732185,water,647.0,220.64,17.9,0.0558659217877095,1.1,10.2714829586657,0.0004161034
711.7,2273.6,43049.0,2.323e-05,29.824,35.106,67.411,49.22,74.82,1445.1,-0.0044088,100.82,0.65308,supercritical,H2O,C7732185,water,647.0,220.64,17.9,0.0558659217877095,1.1,10.304568527918782,0.00041581699999999997
711.7,2281.0,43078.0,2.3214e-05,29.813,35.108,67.391,49.222,74.777,1447.0,-0.0044749,100.93,0.65382,supercritical,H2O,C7732185,water,647.0,220.64,17.9,0.0558659217877095,1.1,10.338107324147934,0.00041553059999999993
711.7,2288.3,43108.0,2.3198e-05,29.802,35.111,67.37,49.224,74.735,1448.9,-0.0045407,101.03,0.65456,supercritical,H2O,C7732185,water,647.0,220.64,17.9,0.0558659217877095,1.1,10.371192893401016,0.00041524419999999996
711.7,2295.7,43137.0,2.3182e-05,29.792,35.113,67.35,49.226,74.692,1450.8,-0.0046059,101.14,0.65529,supercritical,H2O,C7732185,water,647.0,220.64,17.9,0.0558659217877095,1.1,10.404731689630166,0.0004149578
711.7,2303.0,43167.0,2.3166e-05,29.781,35.116,67.33,49.228,74.65,1452.7,-0.0046707,101.24,0.65603,supercritical,H2O,C7732185,water,647.0,220.64,17.9,0.0558659217877095,1.1,10.43781725888325,0.0004146714
711.7,2310.4,43196.0,2.315e-05,29.77,35.119,67.309,49.23,74.608,1454.6,-0.0047351,101.35,0.65676,supercritical,H2O,C7732185,water,647.0,220.64,17.9,0.0558659217877095,1.1,10.471356055112402,0.00041438499999999997
711.7,2317.7,43225.0,2.3135e-05,29.759,35.121,67.289,49.233,74.567,1456.5,-0.004799,101.45,0.6575,supercritical,H2O,C7732185,water,647.0,220.64,17.9,0.0558659217877095,1.1,10.504441624365482,0.00041411649999999997
711.7,2325.1,43254.0,2.3119e-05,29.748,35.124,67.269,49.235,74.525,1458.4,-0.0048625,101.56,0.65823,supercritical,H2O,C7732185,water,647.0,220.64,17.9,0.0558659217877095,1.1,10.537980420594634,0.0004138301
711.7,2332.4,43283.0,2.3104e-05,29.738,35.126,67.249,49.237,74.484,1460.2,-0.0049256,101.66,0.65896,supercritical,H2O,C7732185,water,647.0,220.64,17.9,0.0558659217877095,1.1,10.571065989847718,0.0004135616
711.7,2339.8,43312.0,2.3088e-05,29.727,35.129,67.229,49.239,74.444,1462.1,-0.0049882,101.76,0.65969,supercritical,H2O,C7732185,water,647.0,220.64,17.9,0.0558659217877095,1.1,10.60460478607687,0.00041327519999999996
711.7,2347.1,43341.0,2.3073e-05,29.716,35.132,67.209,49.241,74.403,1464.0,-0.0050504,101.87,0.66042,supercritical,H2O,C7732185,water,647.0,220.64,17.9,0.0558659217877095,1.1,10.63769035532995,0.00041300669999999996
711.7,2354.5,43369.0,2.3058e-05,29.706,35.135,67.189,49.243,74.363,1465.8,-0.0051122,101.97,0.66115,supercritical,H2O,C7732185,water,647.0,220.64,17.9,0.0558659217877095,1.1,10.671229151559102,0.00041273819999999996
711.7,2361.8,43398.0,2.3042e-05,29.695,35.138,67.169,49.246,74.323,1467.7,-0.0051736,102.07,0.66187,supercritical,H2O,C7732185,water,647.0,220.64,17.9,0.0558659217877095,1.1,10.704314720812183,0.0004124518
711.7,2369.2,43427.0,2.3027e-05,29.685,35.14,67.149,49.248,74.283,1469.5,-0.0052345,102.18,0.6626,supercritical,H2O,C7732185,water,647.0,220.64,17.9,0.0558659217877095,1.1,10.737853517041334,0.0004121833
711.7,2376.5,43455.0,2.3012e-05,29.674,35.143,67.129,49.25,74.244,1471.4,-0.0052951,102.28,0.66332,supercritical,H2O,C7732185,water,647.0,220.64,17.9,0.0558659217877095,1.1,10.770939086294417,0.00041191479999999993
711.7,2383.9,43483.0,2.2997e-05,29.664,35.146,67.11,49.252,74.204,1473.2,-0.0053552,102.38,0.66404,supercritical,H2O,C7732185,water,647.0,220.64,17.9,0.0558659217877095,1.1,10.80447788252357,0.0004116463
711.7,2391.2,43512.0,2.2982e-05,29.654,35.149,67.09,49.255,74.165,1475.1,-0.005415,102.49,0.66476,supercritical,H2O,C7732185,water,647.0,220.64,17.9,0.0558659217877095,1.1,10.83756345177665,0.0004113778
711.7,2398.6,43540.0,2.2967e-05,29.643,35.152,67.071,49.257,74.126,1476.9,-0.0054743,102.59,0.66549,supercritical,H2O,C7732185,water,647.0,220.64,17.9,0.0558659217877095,1.1,10.871102248005801,0.00041110929999999994
711.7,2405.9,43568.0,2.2953e-05,29.633,35.155,67.051,49.259,74.088,1478.7,-0.0055333,102.69,0.6662,supercritical,H2O,C7732185,water,647.0,220.64,17.9,0.0558659217877095,1.1,10.904187817258885,0.00041085869999999997
711.7,2413.3,43596.0,2.2938e-05,29.623,35.158,67.032,49.261,74.049,1480.5,-0.0055919,102.79,0.66692,supercritical,H2O,C7732185,water,647.0,220.64,17.9,0.0558659217877095,1.1,10.937726613488037,0.00041059019999999997
711.7,2420.6,43624.0,2.2923e-05,29.612,35.161,67.012,49.263,74.011,1482.4,-0.0056501,102.89,0.66764,supercritical,H2O,C7732185,water,647.0,220.64,17.9,0.0558659217877095,1.1,10.970812182741117,0.00041032169999999997
711.7,2428.0,43652.0,2.2909e-05,29.602,35.164,66.993,49.266,73.973,1484.2,-0.0057079,103.0,0.66836,supercritical,H2O,C7732185,water,647.0,220.64,17.9,0.0558659217877095,1.1,11.004350978970269,0.0004100711
711.7,2435.3,43680.0,2.2894e-05,29.592,35.167,66.974,49.268,73.936,1486.0,-0.0057653,103.1,0.66907,supercritical,H2O,C7732185,water,647.0,220.64,17.9,0.0558659217877095,1.1,11.037436548223353,0.0004098026
711.7,2442.6,43707.0,2.288e-05,29.582,35.17,66.955,49.27,73.898,1487.8,-0.0058224,103.2,0.66979,supercritical,H2O,C7732185,water,647.0,220.64,17.9,0.0558659217877095,1.1,11.070522117476433,0.000409552
711.7,2450.0,43735.0,2.2865e-05,29.572,35.174,66.935,49.272,73.861,1489.6,-0.0058791,103.3,0.6705,supercritical,H2O,C7732185,water,647.0,220.64,17.9,0.0558659217877095,1.1,11.104060913705585,0.00040928349999999993
711.7,2457.3,43762.0,2.2851e-05,29.562,35.177,66.916,49.275,73.824,1491.4,-0.0059354,103.4,0.67121,supercritical,H2O,C7732185,water,647.0,220.64,17.9,0.0558659217877095,1.1,11.137146482958666,0.00040903289999999996
711.7,2464.7,43790.0,2.2836e-05,29.552,35.18,66.897,49.277,73.787,1493.2,-0.0059914,103.5,0.67192,supercritical,H2O,C7732185,water,647.0,220.64,17.9,0.0558659217877095,1.1,11.170685279187817,0.00040876439999999997
711.7,2472.0,43817.0,2.2822e-05,29.542,35.183,66.878,49.279,73.751,1495.0,-0.006047,103.6,0.67263,supercritical,H2O,C7732185,water,647.0,220.64,17.9,0.0558659217877095,1.1,11.2037708484409,0.00040851379999999994
711.7,2479.4,43844.0,2.2808e-05,29.532,35.187,66.859,49.282,73.714,1496.8,-0.0061023,103.7,0.67334,supercritical,H2O,C7732185,water,647.0,220.64,17.9,0.0558659217877095,1.1,11.237309644670052,0.0004082632
711.7,2486.7,43872.0,2.2794e-05,29.522,35.19,66.84,49.284,73.678,1498.5,-0.0061572,103.8,0.67405,supercritical,H2O,C7732185,water,647.0,220.64,17.9,0.0558659217877095,1.1,11.270395213923132,0.00040801259999999996
711.7,2494.1,43899.0,2.278e-05,29.512,35.193,66.822,49.286,73.642,1500.3,-0.0062117,103.9,0.67475,supercritical,H2O,C7732185,water,647.0,220.64,17.9,0.0558659217877095,1.1,11.303934010152284,0.00040776199999999994
711.7,2501.4,43926.0,2.2766e-05,29.502,35.197,66.803,49.288,73.606,1502.1,-0.0062659,104.0,0.67546,supercritical,H2O,C7732185,water,647.0,220.64,17.9,0.0558659217877095,1.1,11.337019579405368,0.00040751139999999997
711.7,2508.8,43953.0,2.2752e-05,29.492,35.2,66.784,49.291,73.571,1503.9,-0.0063198,104.1,0.67616,supercritical,H2O,C7732185,water,647.0,220.64,17.9,0.0558659217877095,1.1,11.37055837563452,0.00040726079999999995
711.7,2516.1,43980.0,2.2738e-05,29.482,35.204,66.765,49.293,73.536,1505.6,-0.0063733,104.2,0.67687,supercritical,H2O,C7732185,water,647.0,220.64,17.9,0.0558659217877095,1.1,11.4036439448876,0.0004070102
711.7,2523.5,44006.0,2.2724e-05,29.473,35.207,66.747,49.295,73.5,1507.4,-0.0064265,104.3,0.67757,supercritical,H2O,C7732185,water,647.0,220.64,17.9,0.0558659217877095,1.1,11.437182741116752,0.0004067596
711.7,2530.8,44033.0,2.271e-05,29.463,35.21,66.728,49.298,73.466,1509.1,-0.0064794,104.39,0.67827,supercritical,H2O,C7732185,water,647.0,220.64,17.9,0.0558659217877095,1.1,11.470268310369836,0.000406509
711.7,2538.2,44060.0,2.2696e-05,29.453,35.214,66.71,49.3,73.431,1510.9,-0.0065319,104.49,0.67897,supercritical,H2O,C7732185,water,647.0,220.64,17.9,0.0558659217877095,1.1,11.503807106598984,0.00040625839999999997
711.7,2545.5,44086.0,2.2683e-05,29.444,35.218,66.691,49.302,73.396,1512.7,-0.0065841,104.59,0.67967,supercritical,H2O,C7732185,water,647.0,220.64,17.9,0.0558659217877095,1.1,11.536892675852068,0.0004060257
711.7,2552.9,44113.0,2.2669e-05,29.434,35.221,66.673,49.304,73.362,1514.4,-0.006636,104.69,0.68037,supercritical,H2O,C7732185,water,647.0,220.64,17.9,0.0558659217877095,1.1,11.57043147208122,0.00040577509999999996
711.7,2560.2,44139.0,2.2656e-05,29.424,35.225,66.655,49.307,73.328,1516.1,-0.0066875,104.79,0.68107,supercritical,H2O,C7732185,water,647.0,220.64,17.9,0.0558659217877095,1.1,11.6035170413343,0.0004055424
711.7,2567.6,44166.0,2.2642e-05,29.415,35.228,66.636,49.309,73.294,1517.9,-0.0067387,104.89,0.68176,supercritical,H2O,C7732185,water,647.0,220.64,17.9,0.0558659217877095,1.1,11.637055837563452,0.0004052918
711.7,2574.9,44192.0,2.2629e-05,29.405,35.232,66.618,49.311,73.26,1519.6,-0.0067897,104.98,0.68246,supercritical,H2O,C7732185,water,647.0,220.64,17.9,0.0558659217877095,1.1,11.670141406816535,0.00040505909999999997
711.7,2582.3,44218.0,2.2615e-05,29.396,35.236,66.6,49.314,73.227,1521.3,-0.0068403,105.08,0.68315,supercritical,H2O,C7732185,water,647.0,220.64,17.9,0.0558659217877095,1.1,11.703680203045687,0.00040480849999999994
711.7,2589.6,44244.0,2.2602e-05,29.386,35.239,66.582,49.316,73.193,1523.1,-0.0068906,105.18,0.68385,supercritical,H2O,C7732185,water,647.0,220.64,17.9,0.0558659217877095,1.1,11.736765772298767,0.0004045758
711.7,2597.0,44270.0,2.2588e-05,29.377,35.243,66.564,49.318,73.16,1524.8,-0.0069406,105.27,0.68454,supercritical,H2O,C7732185,water,647.0,220.64,17.9,0.0558659217877095,1.1,11.77030456852792,0.0004043252
711.7,2604.3,44296.0,2.2575e-05,29.367,35.247,66.545,49.321,73.127,1526.5,-0.0069903,105.37,0.68523,supercritical,H2O,C7732185,water,647.0,220.64,17.9,0.0558659217877095,1.1,11.803390137781003,0.00040409249999999995
711.7,2611.7,44322.0,2.2562e-05,29.358,35.251,66.527,49.323,73.094,1528.2,-0.0070396,105.47,0.68592,supercritical,H2O,C7732185,water,647.0,220.64,17.9,0.0558659217877095,1.1,11.836928934010151,0.00040385979999999996
711.7,2619.0,44348.0,2.2549e-05,29.349,35.254,66.51,49.325,73.061,1529.9,-0.0070887,105.56,0.68661,supercritical,H2O,C7732185,water,647.0,220.64,17.9,0.0558659217877095,1.1,11.870014503263235,0.00040362709999999997
711.7,2626.4,44374.0,2.2536e-05,29.339,35.258,66.492,49.328,73.029,1531.6,-0.0071375,105.66,0.6873,supercritical,H2O,C7732185,water,647.0,220.64,17.9,0.0558659217877095,1.1,11.903553299492387,0.0004033944
711.7,2633.7,44400.0,2.2523e-05,29.33,35.262,66.474,49.33,72.997,1533.3,-0.007186,105.76,0.68799,supercritical,H2O,C7732185,water,647.0,220.64,17.9,0.0558659217877095,1.1,11.936638868745467,0.0004031617
711.7,2641.1,44425.0,2.251e-05,29.321,35.266,66.456,49.332,72.964,1535.0,-0.0072342,105.85,0.68867,supercritical,H2O,C7732185,water,647.0,220.64,17.9,0.0558659217877095,1.1,11.970177664974619,0.00040292899999999995
711.7,2648.4,44451.0,2.2497e-05,29.312,35.27,66.438,49.335,72.933,1536.7,-0.0072822,105.95,0.68936,supercritical,H2O,C7732185,water,647.0,220.64,17.9,0.0558659217877095,1.1,12.003263234227703,0.0004026963
711.7,2655.7,44476.0,2.2484e-05,29.302,35.274,66.42,49.337,72.901,1538.4,-0.0073298,106.04,0.69004,supercritical,H2O,C7732185,water,647.0,220.64,17.9,0.0558659217877095,1.1,12.036348803480783,0.0004024636
711.7,2663.1,44502.0,2.2471e-05,29.293,35.278,66.403,49.339,72.869,1540.1,-0.0073771,106.14,0.69073,supercritical,H2O,C7732185,water,647.0,220.64,17.9,0.0558659217877095,1.1,12.069887599709935,0.00040223089999999993
711.7,2670.4,44527.0,2.2458e-05,29.284,35.282,66.385,49.342,72.838,1541.8,-0.0074242,106.23,0.69141,supercritical,H2O,C7732185,water,647.0,220.64,17.9,0.0558659217877095,1.1,12.102973168963018,0.0004019982
711.7,2677.8,44552.0,2.2445e-05,29.275,35.286,66.368,49.344,72.806,1543.5,-0.007471,106.33,0.69209,supercritical,H2O,C7732185,water,647.0,220.64,17.9,0.0558659217877095,1.1,12.13651196519217,0.00040176549999999995
711.7,2685.1,44578.0,2.2433e-05,29.266,35.29,66.35,49.346,72.775,1545.2,-0.0075175,106.42,0.69277,supercritical,H2O,C7732185,water,647.0,220.64,17.9,0.0558659217877095,1.1,12.16959753444525,0.0004015507
711.7,2692.5,44603.0,2.242e-05,29.257,35.294,66.333,49.349,72.744,1546.8,-0.0075638,106.52,0.69345,supercritical,H2O,C7732185,water,647.0,220.64,17.9,0.0558659217877095,1.1,12.203136330674402,0.00040131799999999995
711.7,2699.8,44628.0,2.2408e-05,29.248,35.298,66.315,49.351,72.714,1548.5,-0.0076097,106.61,0.69413,supercritical,H2O,C7732185,water,647.0,220.64,17.9,0.0558659217877095,1.1,12.236221899927486,0.00040110319999999994
711.7,2707.2,44653.0,2.2395e-05,29.239,35.302,66.298,49.354,72.683,1550.2,-0.0076554,106.71,0.69481,supercritical,H2O,C7732185,water,647.0,220.64,17.9,0.0558659217877095,1.1,12.269760696156634,0.0004008705
711.7,2714.5,44678.0,2.2382e-05,29.23,35.306,66.28,49.356,72.653,1551.8,-0.0077009,106.8,0.69549,supercritical,H2O,C7732185,water,647.0,220.64,17.9,0.0558659217877095,1.1,12.302846265409718,0.00040063779999999997
711.7,2721.9,44703.0,2.237e-05,29.221,35.31,66.263,49.358,72.622,1553.5,-0.007746,106.9,0.69617,supercritical,H2O,C7732185,water,647.0,220.64,17.9,0.0558659217877095,1.1,12.33638506163887,0.000400423
711.7,2729.2,44728.0,2.2358e-05,29.212,35.314,66.246,49.361,72.592,1555.2,-0.0077909,106.99,0.69684,supercritical,H2O,C7732185,water,647.0,220.64,17.9,0.0558659217877095,1.1,12.36947063089195,0.00040020819999999995
711.7,2736.6,44752.0,2.2345e-05,29.203,35.318,66.229,49.363,72.562,1556.8,-0.0078356,107.08,0.69752,supercritical,H2O,C7732185,water,647.0,220.64,17.9,0.0558659217877095,1.1,12.403009427121102,0.00039997549999999996
711.7,2743.9,44777.0,2.2333e-05,29.194,35.322,66.211,49.365,72.532,1558.5,-0.00788,107.18,0.69819,supercritical,H2O,C7732185,water,647.0,220.64,17.9,0.0558659217877095,1.1,12.436094996374186,0.0003997607
711.7,2751.3,44802.0,2.2321e-05,29.186,35.327,66.194,49.368,72.503,1560.1,-0.0079241,107.27,0.69886,supercritical,H2O,C7732185,water,647.0,220.64,17.9,0.0558659217877095,1.1,12.469633792603338,0.00039954589999999994
711.7,2758.6,44826.0,2.2308e-05,29.177,35.331,66.177,49.37,72.473,1561.8,-0.007968,107.36,0.69953,supercritical,H2O,C7732185,water,647.0,220.64,17.9,0.0558659217877095,1.1,12.502719361856418,0.0003993132
711.7,2766.0,44851.0,2.2296e-05,29.168,35.335,66.16,49.372,72.444,1563.4,-0.0080116,107.46,0.70021,supercritical,H2O,C7732185,water,647.0,220.64,17.9,0.0558659217877095,1.1,12.53625815808557,0.0003990984
711.7,2773.3,44875.0,2.2284e-05,29.159,35.339,66.143,49.375,72.414,1565.0,-0.008055,107.55,0.70088,supercritical,H2O,C7732185,water,647.0,220.64,17.9,0.0558659217877095,1.1,12.569343727338653,0.00039888359999999993
711.7,2780.7,44900.0,2.2272e-05,29.151,35.344,66.126,49.377,72.385,1566.7,-0.0080981,107.64,0.70155,supercritical,H2O,C7732185,water,647.0,220.64,17.9,0.0558659217877095,1.1,12.602882523567803,0.0003986688