Temperature (K),Pressure (bar),Density (mol/m3),Volume (m3/mol),Internal Energy (kJ/mol),Enthalpy (kJ/mol),Entropy (J/mol*K),Cv (J/mol*K),Cp (J/mol*K),Sound Spd. (m/s),Joule-Thomson (K/bar),Viscosity (uPa*s),Therm. Cond. (W/m*K),Phase,substance,substance_id,substance_name,Tc,Pc,rhoc,Vmc,Tr,Pr,Vmr
905.8,4184.2,41489.0,2.4103e-05,39.636,49.721,79.966,46.546,68.079,1601.1,-0.0075785,99.498,0.68068,supercritical,H2O,C7732185,water,647.0,220.64,17.9,0.0558659217877095,1.4,18.96392313270486,0.00043144369999999996
905.8,4191.5,41513.0,2.4089e-05,39.628,49.725,79.95,46.55,68.063,1602.5,-0.0076169,99.562,0.68133,supercritical,H2O,C7732185,water,647.0,220.64,17.9,0.0558659217877095,1.4,18.99700870195794,0.00043119309999999994
905.8,4198.9,41536.0,2.4076e-05,39.62,49.729,79.935,46.554,68.046,1603.8,-0.0076552,99.625,0.68198,supercritical,H2O,C7732185,water,647.0,220.64,17.9,0.0558659217877095,1.4,19.03054749818709,0.0004309604
905.8,4206.2,41559.0,2.4062e-05,39.611,49.732,79.92,46.559,68.03,1605.1,-0.0076933,99.689,0.68263,supercritical,H2O,C7732185,water,647.0,220.64,17.9,0.0558659217877095,1.4,19.063633067440175,0.0004307098
905.8,4213.6,41582.0,2.4049e-05,39.603,49.736,79.905,46.563,68.014,1606.4,-0.0077312,99.752,0.68327,supercritical,H2O,C7732185,water,647.0,220.64,17.9,0.0558659217877095,1.4,19.097171863669328,0.00043047709999999994
905.8,4220.9,41605.0,2.4035e-05,39.595,49.74,79.889,46.567,67.998,1607.7,-0.007769,99.815,0.68392,supercritical,H2O,C7732185,water,647.0,220.64,17.9,0.0558659217877095,1.4,19.130257432922406,0.0004302265
905.8,4228.3,41628.0,2.4022e-05,39.587,49.744,79.874,46.572,67.981,1609.0,-0.0078066,99.878,0.68457,supercritical,H2O,C7732185,water,647.0,220.64,17.9,0.0558659217877095,1.4,19.16379622915156,0.0004299938
905.8,4235.6,41651.0,2.4009e-05,39.579,49.748,79.859,46.576,67.965,1610.3,-0.007844,99.941,0.68521,supercritical,H2O,C7732185,water,647.0,220.64,17.9,0.0558659217877095,1.4,19.196881798404643,0.00042976109999999995
905.8,4243.0,41674.0,2.3996e-05,39.571,49.752,79.844,46.58,67.949,1611.6,-0.0078813,100.0,0.68586,supercritical,H2O,C7732185,water,647.0,220.64,17.9,0.0558659217877095,1.4,19.230420594633795,0.00042952839999999996
905.8,4250.3,41697.0,2.3983e-05,39.562,49.756,79.829,46.585,67.933,1612.9,-0.0079184,100.07,0.6865,supercritical,H2O,C7732185,water,647.0,220.64,17.9,0.0558659217877095,1.4,19.263506163886877,0.00042929569999999997
905.8,4257.7,41720.0,2.3969e-05,39.554,49.76,79.814,46.589,67.917,1614.2,-0.0079554,100.13,0.68714,supercritical,H2O,C7732185,water,647.0,220.64,17.9,0.0558659217877095,1.4,19.297044960116025,0.0004290451
905.8,4265.0,41743.0,2.3956e-05,39.546,49.764,79.799,46.593,67.902,1615.5,-0.0079921,100.19,0.68779,supercritical,H2O,C7732185,water,647.0,220.64,17.9,0.0558659217877095,1.4,19.33013052936911,0.00042881239999999996
905.8,4272.4,41765.0,2.3943e-05,39.538,49.768,79.784,46.597,67.886,1616.8,-0.0080288,100.25,0.68843,supercritical,H2O,C7732185,water,647.0,220.64,17.9,0.0558659217877095,1.4,19.36366932559826,0.00042857969999999997
905.8,4279.7,41788.0,2.393e-05,39.53,49.772,79.769,46.602,67.87,1618.1,-0.0080653,100.32,0.68907,supercritical,H2O,C7732185,water,647.0,220.64,17.9,0.0558659217877095,1.4,19.39675489485134,0.000428347
905.8,4287.1,41811.0,2.3917e-05,39.522,49.776,79.754,46.606,67.854,1619.4,-0.0081016,100.38,0.68971,supercritical,H2O,C7732185,water,647.0,220.64,17.9,0.0558659217877095,1.4,19.430293691080497,0.0004281143
905.8,4294.4,41833.0,2.3904e-05,39.514,49.78,79.739,46.61,67.839,1620.7,-0.0081377,100.44,0.69035,supercritical,H2O,C7732185,water,647.0,220.64,17.9,0.0558659217877095,1.4,19.463379260333575,0.00042788159999999995
905.8,4301.8,41856.0,2.3891e-05,39.506,49.784,79.724,46.615,67.823,1622.0,-0.0081737,100.5,0.69099,supercritical,H2O,C7732185,water,647.0,220.64,17.9,0.0558659217877095,1.4,19.496918056562727,0.00042764889999999996
905.8,4309.1,41879.0,2.3879e-05,39.498,49.788,79.709,46.619,67.808,1623.2,-0.0082096,100.56,0.69163,supercritical,H2O,C7732185,water,647.0,220.64,17.9,0.0558659217877095,1.4,19.530003625815812,0.00042743409999999995
905.8,4316.5,41901.0,2.3866e-05,39.491,49.792,79.694,46.623,67.792,1624.5,-0.0082453,100.62,0.69227,supercritical,H2O,C7732185,water,647.0,220.64,17.9,0.0558659217877095,1.4,19.56354242204496,0.0004272014
905.8,4323.8,41923.0,2.3853e-05,39.483,49.796,79.679,46.627,67.777,1625.8,-0.0082808,100.69,0.69291,supercritical,H2O,C7732185,water,647.0,220.64,17.9,0.0558659217877095,1.4,19.596627991298043,0.0004269687
905.8,4331.2,41946.0,2.384e-05,39.475,49.8,79.664,46.632,67.762,1627.1,-0.0083162,100.75,0.69355,supercritical,H2O,C7732185,water,647.0,220.64,17.9,0.0558659217877095,1.4,19.630166787527195,0.00042673599999999993
905.8,4338.5,41968.0,2.3828e-05,39.467,49.805,79.65,46.636,67.746,1628.4,-0.0083514,100.81,0.69419,supercritical,H2O,C7732185,water,647.0,220.64,17.9,0.0558659217877095,1.4,19.663252356780276,0.0004265212
905.8,4345.9,41991.0,2.3815e-05,39.459,49.809,79.635,46.64,67.731,1629.7,-0.0083865,100.87,0.69483,supercritical,H2O,C7732185,water,647.0,220.64,17.9,0.0558659217877095,1.4,19.69679115300943,0.0004262885
905.8,4353.2,42013.0,2.3802e-05,39.451,49.813,79.62,46.644,67.716,1630.9,-0.0084214,100.93,0.69546,supercritical,H2O,C7732185,water,647.0,220.64,17.9,0.0558659217877095,1.4,19.72987672226251,0.0004260558
905.8,4360.6,42035.0,2.379e-05,39.443,49.817,79.606,46.649,67.701,1632.2,-0.0084562,100.99,0.6961,supercritical,H2O,C7732185,water,647.0,220.64,17.9,0.0558659217877095,1.4,19.763415518491662,0.000425841
905.8,4367.9,42057.0,2.3777e-05,39.436,49.821,79.591,46.653,67.686,1633.5,-0.0084909,101.05,0.69674,supercritical,H2O,C7732185,water,647.0,220.64,17.9,0.0558659217877095,1.4,19.79650108774474,0.00042560829999999995
905.8,4375.3,42079.0,2.3765e-05,39.428,49.826,79.576,46.657,67.671,1634.8,-0.0085254,101.11,0.69737,supercritical,H2O,C7732185,water,647.0,220.64,17.9,0.0558659217877095,1.4,19.830039883973896,0.0004253935
905.8,4382.6,42102.0,2.3752e-05,39.42,49.83,79.562,46.661,67.656,1636.0,-0.0085597,101.17,0.69801,supercritical,H2O,C7732185,water,647.0,220.64,17.9,0.0558659217877095,1.4,19.863125453226978,0.00042516079999999995
905.8,4390.0,42124.0,2.374e-05,39.412,49.834,79.547,46.666,67.641,1637.3,-0.0085939,101.23,0.69864,supercritical,H2O,C7732185,water,647.0,220.64,17.9,0.0558659217877095,1.4,19.89666424945613,0.000424946
905.8,4397.3,42146.0,2.3727e-05,39.405,49.838,79.533,46.67,67.626,1638.6,-0.008628,101.29,0.69927,supercritical,H2O,C7732185,water,647.0,220.64,17.9,0.0558659217877095,1.4,19.92974981870921,0.00042471329999999995
905.8,4404.7,42168.0,2.3715e-05,39.397,49.843,79.518,46.674,67.611,1639.8,-0.0086619,101.35,0.69991,supercritical,H2O,C7732185,water,647.0,220.64,17.9,0.0558659217877095,1.4,19.96328861493836,0.00042449849999999994
905.8,4412.0,42190.0,2.3703e-05,39.389,49.847,79.504,46.678,67.596,1641.1,-0.0086956,101.41,0.70054,supercritical,H2O,C7732185,water,647.0,220.64,17.9,0.0558659217877095,1.4,19.996374184191446,0.0004242837