Temperature (K),Pressure (bar),Density (mol/m3),Volume (m3/mol),Internal Energy (kJ/mol),Enthalpy (kJ/mol),Entropy (J/mol*K),Cv (J/mol*K),Cp (J/mol*K),Sound Spd. (m/s),Joule-Thomson (K/bar),Viscosity (uPa*s),Therm. Cond. (W/m*K),Phase,substance,substance_id,substance_name,Tc,Pc,rhoc,Vmc,Tr,Pr,Vmr
211.2,304.18,20213.0,4.9474e-05,-0.36377,1.1411,89.072,15.512,43.469,469.67,0.042146,51.832,0.049832,supercritical,Ar,C7440371,argon,150.86,48.9805,13.41,0.07457121551081282,1.4,6.210226518716633,0.0006634463400000001
211.2,305.81,20264.0,4.9348e-05,-0.37093,1.1382,89.019,15.515,43.391,471.15,0.041244,52.03,0.049992,supercritical,Ar,C7440371,argon,150.86,48.9805,13.41,0.07457121551081282,1.4,6.2435050683435245,0.0006617566800000001
211.2,307.44,20316.0,4.9223e-05,-0.37804,1.1353,88.968,15.518,43.314,472.62,0.040355,52.228,0.050151,supercritical,Ar,C7440371,argon,150.86,48.9805,13.41,0.07457121551081282,1.4,6.276783617970417,0.0006600804300000001
211.2,309.07,20366.0,4.9101e-05,-0.38508,1.1325,88.916,15.522,43.238,474.09,0.039478,52.425,0.05031,supercritical,Ar,C7440371,argon,150.86,48.9805,13.41,0.07457121551081282,1.4,6.310062167597309,0.0006584444100000001
211.2,310.7,20417.0,4.898e-05,-0.39207,1.1297,88.866,15.525,43.162,475.55,0.038613,52.623,0.050468,supercritical,Ar,C7440371,argon,150.86,48.9805,13.41,0.07457121551081282,1.4,6.343340717224201,0.0006568218000000001
211.2,312.33,20467.0,4.886e-05,-0.399,1.127,88.815,15.528,43.087,477.0,0.03776,52.819,0.050626,supercritical,Ar,C7440371,argon,150.86,48.9805,13.41,0.07457121551081282,1.4,6.376619266851094,0.0006552126000000001
211.2,313.96,20516.0,4.8742e-05,-0.40588,1.1244,88.765,15.532,43.013,478.45,0.036918,53.015,0.050782,supercritical,Ar,C7440371,argon,150.86,48.9805,13.41,0.07457121551081282,1.4,6.409897816477986,0.0006536302200000001
211.2,315.59,20565.0,4.8625e-05,-0.41271,1.1219,88.715,15.535,42.94,479.9,0.036088,53.211,0.050938,supercritical,Ar,C7440371,argon,150.86,48.9805,13.41,0.07457121551081282,1.4,6.443176366104878,0.0006520612500000001
211.2,317.22,20614.0,4.851e-05,-0.41948,1.1194,88.666,15.539,42.867,481.33,0.035269,53.406,0.051094,supercritical,Ar,C7440371,argon,150.86,48.9805,13.41,0.07457121551081282,1.4,6.476454915731772,0.0006505191
211.2,318.85,20663.0,4.8397e-05,-0.4262,1.1169,88.617,15.542,42.795,482.76,0.034461,53.601,0.051248,supercritical,Ar,C7440371,argon,150.86,48.9805,13.41,0.07457121551081282,1.4,6.509733465358663,0.0006490037700000001
211.2,320.48,20711.0,4.8285e-05,-0.43286,1.1146,88.569,15.546,42.724,484.19,0.033664,53.795,0.051403,supercritical,Ar,C7440371,argon,150.86,48.9805,13.41,0.07457121551081282,1.4,6.543012014985556,0.00064750185
211.2,322.11,20758.0,4.8174e-05,-0.43948,1.1122,88.52,15.549,42.654,485.61,0.032878,53.989,0.051556,supercritical,Ar,C7440371,argon,150.86,48.9805,13.41,0.07457121551081282,1.4,6.5762905646124485,0.0006460133400000001
211.2,323.74,20805.0,4.8064e-05,-0.44604,1.11,88.473,15.553,42.584,487.02,0.032101,54.182,0.051709,supercritical,Ar,C7440371,argon,150.86,48.9805,13.41,0.07457121551081282,1.4,6.60956911423934,0.0006445382400000001
211.2,325.37,20852.0,4.7956e-05,-0.45256,1.1078,88.425,15.556,42.515,488.43,0.031335,54.375,0.051861,supercritical,Ar,C7440371,argon,150.86,48.9805,13.41,0.07457121551081282,1.4,6.642847663866233,0.0006430899600000001
211.2,327.0,20899.0,4.7849e-05,-0.45903,1.1056,88.378,15.56,42.446,489.83,0.030579,54.568,0.052013,supercritical,Ar,C7440371,argon,150.86,48.9805,13.41,0.07457121551081282,1.4,6.6761262134931245,0.0006416550900000001
211.2,328.63,20945.0,4.7744e-05,-0.46544,1.1036,88.331,15.564,42.378,491.23,0.029833,54.76,0.052164,supercritical,Ar,C7440371,argon,150.86,48.9805,13.41,0.07457121551081282,1.4,6.709404763120017,0.0006402470400000001
211.2,330.26,20991.0,4.7639e-05,-0.47181,1.1015,88.285,15.567,42.311,492.62,0.029096,54.952,0.052314,supercritical,Ar,C7440371,argon,150.86,48.9805,13.41,0.07457121551081282,1.4,6.74268331274691,0.0006388389900000001
211.2,331.89,21037.0,4.7536e-05,-0.47814,1.0995,88.239,15.571,42.245,494.01,0.028368,55.143,0.052464,supercritical,Ar,C7440371,argon,150.86,48.9805,13.41,0.07457121551081282,1.4,6.775961862373801,0.00063745776
211.2,333.52,21082.0,4.7434e-05,-0.48441,1.0976,88.193,15.575,42.179,495.39,0.02765,55.334,0.052614,supercritical,Ar,C7440371,argon,150.86,48.9805,13.41,0.07457121551081282,1.4,6.809240412000694,0.0006360899400000001
211.2,335.15,21127.0,4.7334e-05,-0.49064,1.0957,88.148,15.578,42.114,496.76,0.026941,55.524,0.052762,supercritical,Ar,C7440371,argon,150.86,48.9805,13.41,0.07457121551081282,1.4,6.8425189616275865,0.00063474894
211.2,336.78,21171.0,4.7234e-05,-0.49683,1.0939,88.102,15.582,42.049,498.13,0.026241,55.714,0.052911,supercritical,Ar,C7440371,argon,150.86,48.9805,13.41,0.07457121551081282,1.4,6.875797511254478,0.00063340794
211.2,338.41,21215.0,4.7136e-05,-0.50297,1.0921,88.058,15.586,41.985,499.5,0.025549,55.903,0.053058,supercritical,Ar,C7440371,argon,150.86,48.9805,13.41,0.07457121551081282,1.4,6.909076060881372,0.00063209376
211.2,340.04,21259.0,4.7038e-05,-0.50907,1.0904,88.013,15.59,41.922,500.86,0.024867,56.092,0.053205,supercritical,Ar,C7440371,argon,150.86,48.9805,13.41,0.07457121551081282,1.4,6.942354610508264,0.00063077958
211.2,341.67,21303.0,4.6942e-05,-0.51512,1.0887,87.969,15.594,41.859,502.21,0.024192,56.281,0.053352,supercritical,Ar,C7440371,argon,150.86,48.9805,13.41,0.07457121551081282,1.4,6.975633160135156,0.00062949222
211.2,343.3,21346.0,4.6847e-05,-0.52113,1.0871,87.925,15.597,41.797,503.56,0.023526,56.469,0.053498,supercritical,Ar,C7440371,argon,150.86,48.9805,13.41,0.07457121551081282,1.4,7.008911709762049,0.0006282182700000001
211.2,344.93,21389.0,4.6753e-05,-0.5271,1.0855,87.881,15.601,41.736,504.9,0.022868,56.657,0.053644,supercritical,Ar,C7440371,argon,150.86,48.9805,13.41,0.07457121551081282,1.4,7.042190259388941,0.00062695773
211.2,346.56,21432.0,4.666e-05,-0.53303,1.084,87.838,15.605,41.675,506.24,0.022218,56.845,0.053789,supercritical,Ar,C7440371,argon,150.86,48.9805,13.41,0.07457121551081282,1.4,7.075468809015833,0.0006257106
211.2,348.19,21474.0,4.6568e-05,-0.53892,1.0825,87.795,15.609,41.614,507.57,0.021576,57.032,0.053933,supercritical,Ar,C7440371,argon,150.86,48.9805,13.41,0.07457121551081282,1.4,7.1087473586427254,0.0006244768800000001
211.2,349.82,21516.0,4.6477e-05,-0.54476,1.0811,87.752,15.613,41.555,508.9,0.020942,57.218,0.054077,supercritical,Ar,C7440371,argon,150.86,48.9805,13.41,0.07457121551081282,1.4,7.142025908269617,0.0006232565700000001
211.2,351.45,21558.0,4.6386e-05,-0.55057,1.0797,87.71,15.617,41.496,510.22,0.020315,57.404,0.054221,supercritical,Ar,C7440371,argon,150.86,48.9805,13.41,0.07457121551081282,1.4,7.17530445789651,0.00062203626
211.2,353.08,21600.0,4.6297e-05,-0.55633,1.0783,87.668,15.621,41.437,511.54,0.019696,57.59,0.054364,supercritical,Ar,C7440371,argon,150.86,48.9805,13.41,0.07457121551081282,1.4,7.208583007523402,0.0006208427700000001
211.2,354.71,21641.0,4.6209e-05,-0.56206,1.077,87.626,15.625,41.379,512.85,0.019084,57.775,0.054506,supercritical,Ar,C7440371,argon,150.86,48.9805,13.41,0.07457121551081282,1.4,7.241861557150294,0.00061966269
211.2,356.34,21682.0,4.6122e-05,-0.56775,1.0758,87.584,15.629,41.321,514.16,0.018479,57.96,0.054648,supercritical,Ar,C7440371,argon,150.86,48.9805,13.41,0.07457121551081282,1.4,7.275140106777187,0.0006184960200000001
211.2,357.97,21722.0,4.6036e-05,-0.5734,1.0745,87.543,15.633,41.264,515.46,0.017881,58.145,0.05479,supercritical,Ar,C7440371,argon,150.86,48.9805,13.41,0.07457121551081282,1.4,7.30841865640408,0.00061734276
211.2,359.6,21763.0,4.595e-05,-0.57901,1.0734,87.502,15.637,41.208,516.76,0.017291,58.329,0.054931,supercritical,Ar,C7440371,argon,150.86,48.9805,13.41,0.07457121551081282,1.4,7.341697206030972,0.0006161895
211.2,361.23,21803.0,4.5865e-05,-0.58459,1.0722,87.461,15.641,41.152,518.05,0.016707,58.513,0.055072,supercritical,Ar,C7440371,argon,150.86,48.9805,13.41,0.07457121551081282,1.4,7.374975755657864,0.0006150496500000001
211.2,362.86,21843.0,4.5782e-05,-0.59013,1.0711,87.42,15.645,41.096,519.34,0.016129,58.696,0.055212,supercritical,Ar,C7440371,argon,150.86,48.9805,13.41,0.07457121551081282,1.4,7.408254305284757,0.0006139366200000001
211.2,364.49,21882.0,4.5699e-05,-0.59563,1.07,87.38,15.649,41.041,520.62,0.015559,58.879,0.055352,supercritical,Ar,C7440371,argon,150.86,48.9805,13.41,0.07457121551081282,1.4,7.441532854911649,0.00061282359
211.2,366.12,21922.0,4.5617e-05,-0.6011,1.069,87.34,15.653,40.987,521.9,0.014995,59.062,0.055491,supercritical,Ar,C7440371,argon,150.86,48.9805,13.41,0.07457121551081282,1.4,7.474811404538541,0.00061172397
211.2,367.75,21961.0,4.5536e-05,-0.60653,1.068,87.3,15.657,40.933,523.17,0.014437,59.244,0.05563,supercritical,Ar,C7440371,argon,150.86,48.9805,13.41,0.07457121551081282,1.4,7.508089954165433,0.00061063776
211.2,369.38,22000.0,4.5455e-05,-0.61192,1.0671,87.261,15.661,40.88,524.44,0.013886,59.425,0.055769,supercritical,Ar,C7440371,argon,150.86,48.9805,13.41,0.07457121551081282,1.4,7.5413685037923255,0.00060955155
211.2,371.01,22038.0,4.5376e-05,-0.61729,1.0662,87.221,15.665,40.827,525.7,0.013341,59.607,0.055907,supercritical,Ar,C7440371,argon,150.86,48.9805,13.41,0.07457121551081282,1.4,7.574647053419218,0.0006084921600000001
211.2,372.64,22077.0,4.5297e-05,-0.62261,1.0653,87.182,15.67,40.774,526.96,0.012802,59.788,0.056045,supercritical,Ar,C7440371,argon,150.86,48.9805,13.41,0.07457121551081282,1.4,7.60792560304611,0.00060743277
211.2,374.27,22115.0,4.5219e-05,-0.62791,1.0645,87.143,15.674,40.722,528.22,0.012269,59.968,0.056182,supercritical,Ar,C7440371,argon,150.86,48.9805,13.41,0.07457121551081282,1.4,7.641204152673002,0.0006063867900000001
211.2,375.9,22153.0,4.5141e-05,-0.63317,1.0637,87.105,15.678,40.671,529.47,0.011742,60.148,0.056319,supercritical,Ar,C7440371,argon,150.86,48.9805,13.41,0.07457121551081282,1.4,7.674482702299895,0.00060534081
211.2,377.53,22190.0,4.5065e-05,-0.6384,1.0629,87.066,15.682,40.62,530.72,0.01122,60.328,0.056455,supercritical,Ar,C7440371,argon,150.86,48.9805,13.41,0.07457121551081282,1.4,7.707761251926787,0.0006043216500000001
211.2,379.16,22228.0,4.4989e-05,-0.64359,1.0622,87.028,15.686,40.569,531.96,0.010705,60.507,0.056591,supercritical,Ar,C7440371,argon,150.86,48.9805,13.41,0.07457121551081282,1.4,7.74103980155368,0.00060330249
211.2,380.79,22265.0,4.4914e-05,-0.64875,1.0615,86.99,15.69,40.519,533.19,0.010194,60.686,0.056727,supercritical,Ar,C7440371,argon,150.86,48.9805,13.41,0.07457121551081282,1.4,7.774318351180573,0.0006022967400000001
211.2,382.42,22302.0,4.4839e-05,-0.65389,1.0609,86.952,15.695,40.469,534.43,0.00969,60.865,0.056862,supercritical,Ar,C7440371,argon,150.86,48.9805,13.41,0.07457121551081282,1.4,7.807596900807464,0.00060129099
211.2,384.05,22339.0,4.4766e-05,-0.65899,1.0602,86.915,15.699,40.42,535.65,0.0091909,61.043,0.056997,supercritical,Ar,C7440371,argon,150.86,48.9805,13.41,0.07457121551081282,1.4,7.840875450434357,0.0006003120600000001
211.2,385.68,22375.0,4.4693e-05,-0.66405,1.0597,86.877,15.703,40.371,536.88,0.0086973,61.221,0.057131,supercritical,Ar,C7440371,argon,150.86,48.9805,13.41,0.07457121551081282,1.4,7.8741540000612495,0.0005993331300000001
211.2,387.31,22411.0,4.462e-05,-0.66909,1.0591,86.84,15.707,40.323,538.1,0.0082088,61.398,0.057265,supercritical,Ar,C7440371,argon,150.86,48.9805,13.41,0.07457121551081282,1.4,7.907432549688141,0.0005983542000000001
211.2,388.94,22447.0,4.4549e-05,-0.6741,1.0586,86.803,15.711,40.275,539.31,0.0077256,61.575,0.057399,supercritical,Ar,C7440371,argon,150.86,48.9805,13.41,0.07457121551081282,1.4,7.940711099315034,0.0005974020900000001
211.2,390.57,22483.0,4.4478e-05,-0.67908,1.0581,86.767,15.716,40.228,540.52,0.0072475,61.752,0.057532,supercritical,Ar,C7440371,argon,150.86,48.9805,13.41,0.07457121551081282,1.4,7.9739896489419255,0.00059644998
211.2,392.2,22519.0,4.4407e-05,-0.68403,1.0576,86.73,15.72,40.18,541.73,0.0067744,61.928,0.057665,supercritical,Ar,C7440371,argon,150.86,48.9805,13.41,0.07457121551081282,1.4,8.007268198568818,0.0005954978700000001
211.2,393.83,22554.0,4.4337e-05,-0.68895,1.0572,86.694,15.724,40.134,542.93,0.0063063,62.104,0.057798,supercritical,Ar,C7440371,argon,150.86,48.9805,13.41,0.07457121551081282,1.4,8.04054674819571,0.00059455917
211.2,395.46,22590.0,4.4268e-05,-0.69383,1.0568,86.658,15.728,40.087,544.13,0.0058431,62.279,0.05793,supercritical,Ar,C7440371,argon,150.86,48.9805,13.41,0.07457121551081282,1.4,8.073825297822603,0.00059363388
211.2,397.09,22625.0,4.42e-05,-0.6987,1.0564,86.622,15.733,40.042,545.32,0.0053847,62.455,0.058062,supercritical,Ar,C7440371,argon,150.86,48.9805,13.41,0.07457121551081282,1.4,8.107103847449494,0.0005927220000000001
211.2,398.72,22659.0,4.4132e-05,-0.70353,1.0561,86.586,15.737,39.996,546.51,0.004931,62.629,0.058193,supercritical,Ar,C7440371,argon,150.86,48.9805,13.41,0.07457121551081282,1.4,8.140382397076388,0.00059181012
211.2,400.35,22694.0,4.4064e-05,-0.70833,1.0558,86.551,15.741,39.951,547.7,0.004482,62.804,0.058324,supercritical,Ar,C7440371,argon,150.86,48.9805,13.41,0.07457121551081282,1.4,8.173660946703281,0.00059089824
211.2,401.98,22728.0,4.3998e-05,-0.71311,1.0555,86.516,15.746,39.906,548.88,0.0040376,62.978,0.058455,supercritical,Ar,C7440371,argon,150.86,48.9805,13.41,0.07457121551081282,1.4,8.206939496330172,0.0005900131800000001
211.2,403.61,22763.0,4.3932e-05,-0.71786,1.0553,86.481,15.75,39.862,550.06,0.0035977,63.151,0.058586,supercritical,Ar,C7440371,argon,150.86,48.9805,13.41,0.07457121551081282,1.4,8.240218045957064,0.00058912812
211.2,405.24,22797.0,4.3866e-05,-0.72258,1.055,86.446,15.754,39.818,551.23,0.0031623,63.325,0.058716,supercritical,Ar,C7440371,argon,150.86,48.9805,13.41,0.07457121551081282,1.4,8.273496595583957,0.0005882430600000001
211.2,406.87,22831.0,4.3801e-05,-0.72728,1.0549,86.411,15.759,39.774,552.4,0.0027312,63.497,0.058846,supercritical,Ar,C7440371,argon,150.86,48.9805,13.41,0.07457121551081282,1.4,8.30677514521085,0.0005873714100000001
211.2,408.5,22864.0,4.3736e-05,-0.73195,1.0547,86.376,15.763,39.731,553.57,0.0023045,63.67,0.058975,supercritical,Ar,C7440371,argon,150.86,48.9805,13.41,0.07457121551081282,1.4,8.340053694837742,0.0005864997600000001
211.2,410.13,22898.0,4.3673e-05,-0.73659,1.0546,86.342,15.767,39.688,554.73,0.0018821,63.842,0.059104,supercritical,Ar,C7440371,argon,150.86,48.9805,13.41,0.07457121551081282,1.4,8.373332244464635,0.0005856549300000001
211.2,411.76,22931.0,4.3609e-05,-0.74121,1.0544,86.308,15.772,39.646,555.89,0.0014639,64.014,0.059233,supercritical,Ar,C7440371,argon,150.86,48.9805,13.41,0.07457121551081282,1.4,8.406610794091526,0.0005847966900000001
211.2,413.39,22964.0,4.3546e-05,-0.7458,1.0544,86.274,15.776,39.604,557.04,0.0010498,64.185,0.059362,supercritical,Ar,C7440371,argon,150.86,48.9805,13.41,0.07457121551081282,1.4,8.439889343718418,0.00058395186
211.2,415.02,22997.0,4.3484e-05,-0.75036,1.0543,86.24,15.78,39.562,558.19,0.00063981,64.356,0.05949,supercritical,Ar,C7440371,argon,150.86,48.9805,13.41,0.07457121551081282,1.4,8.47316789334531,0.0005831204400000001
211.2,416.65,23030.0,4.3422e-05,-0.7549,1.0543,86.206,15.785,39.52,559.34,0.00023385,64.527,0.059618,supercritical,Ar,C7440371,argon,150.86,48.9805,13.41,0.07457121551081282,1.4,8.506446442972203,0.0005822890200000001
211.2,418.28,23062.0,4.3361e-05,-0.75942,1.0543,86.173,15.789,39.479,560.48,-0.00016814,64.697,0.059745,supercritical,Ar,C7440371,argon,150.86,48.9805,13.41,0.07457121551081282,1.4,8.539724992599096,0.00058147101
211.2,419.91,23095.0,4.33e-05,-0.76391,1.0543,86.139,15.793,39.438,561.62,-0.00056621,64.867,0.059872,supercritical,Ar,C7440371,argon,150.86,48.9805,13.41,0.07457121551081282,1.4,8.573003542225988,0.0005806530000000001
211.2,421.54,23127.0,4.324e-05,-0.76837,1.0544,86.106,15.798,39.398,562.75,-0.00096043,65.037,0.059999,supercritical,Ar,C7440371,argon,150.86,48.9805,13.41,0.07457121551081282,1.4,8.606282091852881,0.0005798484
211.2,423.17,23159.0,4.318e-05,-0.77282,1.0544,86.073,15.802,39.358,563.89,-0.0013508,65.206,0.060126,supercritical,Ar,C7440371,argon,150.86,48.9805,13.41,0.07457121551081282,1.4,8.639560641479774,0.0005790438000000001
211.2,424.8,23191.0,4.3121e-05,-0.77723,1.0545,86.04,15.807,39.318,565.01,-0.0017375,65.375,0.060252,supercritical,Ar,C7440371,argon,150.86,48.9805,13.41,0.07457121551081282,1.4,8.672839191106664,0.0005782526100000001
211.2,426.43,23223.0,4.3062e-05,-0.78163,1.0546,86.008,15.811,39.279,566.14,-0.0021204,65.543,0.060378,supercritical,Ar,C7440371,argon,150.86,48.9805,13.41,0.07457121551081282,1.4,8.706117740733557,0.0005774614200000001
211.2,428.06,23254.0,4.3003e-05,-0.786,1.0548,85.975,15.815,39.24,567.26,-0.0024997,65.712,0.060504,supercritical,Ar,C7440371,argon,150.86,48.9805,13.41,0.07457121551081282,1.4,8.73939629036045,0.0005766702300000001
211.2,429.69,23285.0,4.2945e-05,-0.79035,1.055,85.943,15.82,39.201,568.38,-0.0028754,65.879,0.06063,supercritical,Ar,C7440371,argon,150.86,48.9805,13.41,0.07457121551081282,1.4,8.772674839987342,0.0005758924500000001
211.2,431.32,23317.0,4.2888e-05,-0.79467,1.0552,85.911,15.824,39.162,569.49,-0.0032476,66.047,0.060755,supercritical,Ar,C7440371,argon,150.86,48.9805,13.41,0.07457121551081282,1.4,8.805953389614235,0.0005751280800000001
211.2,432.95,23348.0,4.2831e-05,-0.79897,1.0554,85.879,15.829,39.124,570.6,-0.0036162,66.214,0.06088,supercritical,Ar,C7440371,argon,150.86,48.9805,13.41,0.07457121551081282,1.4,8.839231939241126,0.00057436371
211.2,434.58,23379.0,4.2774e-05,-0.80325,1.0556,85.847,15.833,39.086,571.71,-0.0039814,66.381,0.061004,supercritical,Ar,C7440371,argon,150.86,48.9805,13.41,0.07457121551081282,1.4,8.872510488868018,0.0005735993400000001
211.2,436.21,23409.0,4.2718e-05,-0.80751,1.0559,85.815,15.837,39.049,572.81,-0.0043432,66.547,0.061129,supercritical,Ar,C7440371,argon,150.86,48.9805,13.41,0.07457121551081282,1.4,8.90578903849491,0.00057284838
211.2,437.84,23440.0,4.2662e-05,-0.81174,1.0562,85.783,15.842,39.011,573.91,-0.0047017,66.713,0.061253,supercritical,Ar,C7440371,argon,150.86,48.9805,13.41,0.07457121551081282,1.4,8.939067588121803,0.0005720974200000001
211.2,439.47,23470.0,4.2607e-05,-0.81596,1.0565,85.752,15.846,38.974,575.0,-0.0050568,66.879,0.061376,supercritical,Ar,C7440371,argon,150.86,48.9805,13.41,0.07457121551081282,1.4,8.972346137748696,0.00057135987
211.2,441.1,23501.0,4.2552e-05,-0.82015,1.0568,85.721,15.851,38.938,576.1,-0.0054086,67.044,0.0615,supercritical,Ar,C7440371,argon,150.86,48.9805,13.41,0.07457121551081282,1.4,9.005624687375589,0.00057062232
211.2,442.73,23531.0,4.2498e-05,-0.82432,1.0572,85.69,15.855,38.901,577.18,-0.0057572,67.209,0.061623,supercritical,Ar,C7440371,argon,150.86,48.9805,13.41,0.07457121551081282,1.4,9.038903237002481,0.00056989818
211.2,444.36,23561.0,4.2443e-05,-0.82847,1.0576,85.659,15.86,38.865,578.27,-0.0061027,67.374,0.061746,supercritical,Ar,C7440371,argon,150.86,48.9805,13.41,0.07457121551081282,1.4,9.072181786629374,0.0005691606300000001
211.2,445.99,23591.0,4.239e-05,-0.83259,1.0579,85.628,15.864,38.829,579.35,-0.0064449,67.538,0.061869,supercritical,Ar,C7440371,argon,150.86,48.9805,13.41,0.07457121551081282,1.4,9.105460336256266,0.0005684499
211.2,447.62,23620.0,4.2337e-05,-0.8367,1.0584,85.597,15.868,38.794,580.43,-0.0067841,67.703,0.061991,supercritical,Ar,C7440371,argon,150.86,48.9805,13.41,0.07457121551081282,1.4,9.138738885883157,0.00056773917
211.2,449.25,23650.0,4.2284e-05,-0.84079,1.0588,85.566,15.873,38.759,581.51,-0.0071202,67.866,0.062113,supercritical,Ar,C7440371,argon,150.86,48.9805,13.41,0.07457121551081282,1.4,9.17201743551005,0.00056702844
211.2,450.88,23679.0,4.2231e-05,-0.84485,1.0593,85.536,15.877,38.724,582.58,-0.0074533,68.03,0.062235,supercritical,Ar,C7440371,argon,150.86,48.9805,13.41,0.07457121551081282,1.4,9.205295985136942,0.0005663177100000001
211.2,452.51,23708.0,4.2179e-05,-0.8489,1.0597,85.506,15.882,38.689,583.65,-0.0077835,68.193,0.062357,supercritical,Ar,C7440371,argon,150.86,48.9805,13.41,0.07457121551081282,1.4,9.238574534763835,0.00056562039