Temperature (K),Pressure (bar),Density (mol/m3),Volume (m3/mol),Internal Energy (kJ/mol),Enthalpy (kJ/mol),Entropy (J/mol*K),Cv (J/mol*K),Cp (J/mol*K),Sound Spd. (m/s),Joule-Thomson (K/bar),Viscosity (uPa*s),Therm. Cond. (W/m*K),Phase,substance,substance_id,substance_name,Tc,Pc,rhoc,Vmc,Tr,Pr,Vmr
638.78,450.88,8004.9,0.00012492,28.742,34.374,98.157,41.838,58.748,465.52,0.05552,39.594,0.061374,supercritical,CO2,C124389,carbon-dioxide,304.18,73.8,10.6,0.09433962264150944,2.1,6.109485094850949,0.0013241519999999999
638.78,453.33,8041.0,0.00012436,28.729,34.366,98.096,41.845,58.778,466.29,0.055031,39.678,0.061492,supercritical,CO2,C124389,carbon-dioxide,304.18,73.8,10.6,0.09433962264150944,2.1,6.142682926829268,0.001318216
638.78,455.79,8077.1,0.00012381,28.715,34.358,98.036,41.852,58.808,467.06,0.054545,39.763,0.061609,supercritical,CO2,C124389,carbon-dioxide,304.18,73.8,10.6,0.09433962264150944,2.1,6.176016260162602,0.0013123859999999998
638.78,458.25,8113.0,0.00012326,28.702,34.351,97.976,41.858,58.837,467.83,0.054061,39.847,0.061726,supercritical,CO2,C124389,carbon-dioxide,304.18,73.8,10.6,0.09433962264150944,2.1,6.2093495934959355,0.001306556
638.78,460.71,8148.8,0.00012272,28.689,34.343,97.917,41.865,58.867,468.61,0.053581,39.932,0.061844,supercritical,CO2,C124389,carbon-dioxide,304.18,73.8,10.6,0.09433962264150944,2.1,6.242682926829268,0.0013008319999999998
638.78,463.17,8184.5,0.00012218,28.676,34.335,97.858,41.872,58.896,469.38,0.053103,40.017,0.061961,supercritical,CO2,C124389,carbon-dioxide,304.18,73.8,10.6,0.09433962264150944,2.1,6.276016260162602,0.001295108
638.78,465.63,8220.1,0.00012165,28.663,34.327,97.799,41.878,58.924,470.16,0.052628,40.103,0.062078,supercritical,CO2,C124389,carbon-dioxide,304.18,73.8,10.6,0.09433962264150944,2.1,6.309349593495935,0.00128949
638.78,468.08,8255.6,0.00012113,28.65,34.32,97.74,41.885,58.953,470.94,0.052156,40.188,0.062196,supercritical,CO2,C124389,carbon-dioxide,304.18,73.8,10.6,0.09433962264150944,2.1,6.342547425474255,0.0012839779999999999
638.78,470.54,8291.0,0.00012061,28.637,34.312,97.682,41.892,58.981,471.72,0.051687,40.274,0.062313,supercritical,CO2,C124389,carbon-dioxide,304.18,73.8,10.6,0.09433962264150944,2.1,6.375880758807589,0.0012784659999999998
638.78,473.0,8326.3,0.0001201,28.624,34.305,97.624,41.898,59.009,472.51,0.05122,40.36,0.06243,supercritical,CO2,C124389,carbon-dioxide,304.18,73.8,10.6,0.09433962264150944,2.1,6.409214092140922,0.00127306
638.78,475.46,8361.5,0.0001196,28.611,34.297,97.566,41.905,59.037,473.29,0.050756,40.446,0.062548,supercritical,CO2,C124389,carbon-dioxide,304.18,73.8,10.6,0.09433962264150944,2.1,6.442547425474254,0.00126776
638.78,477.92,8396.6,0.0001191,28.598,34.29,97.509,41.911,59.064,474.08,0.050296,40.532,0.062665,supercritical,CO2,C124389,carbon-dioxide,304.18,73.8,10.6,0.09433962264150944,2.1,6.475880758807588,0.0012624599999999998
638.78,480.38,8431.6,0.0001186,28.585,34.283,97.452,41.918,59.091,474.86,0.049837,40.619,0.062782,supercritical,CO2,C124389,carbon-dioxide,304.18,73.8,10.6,0.09433962264150944,2.1,6.509214092140922,0.0012571599999999998
638.78,482.83,8466.4,0.00011811,28.573,34.276,97.395,41.924,59.118,475.65,0.049382,40.705,0.062899,supercritical,CO2,C124389,carbon-dioxide,304.18,73.8,10.6,0.09433962264150944,2.1,6.542411924119241,0.001251966
638.78,485.29,8501.2,0.00011763,28.56,34.268,97.338,41.931,59.145,476.44,0.048929,40.792,0.063017,supercritical,CO2,C124389,carbon-dioxide,304.18,73.8,10.6,0.09433962264150944,2.1,6.575745257452575,0.0012468779999999999
638.78,487.75,8535.8,0.00011715,28.547,34.261,97.282,41.937,59.171,477.23,0.04848,40.879,0.063134,supercritical,CO2,C124389,carbon-dioxide,304.18,73.8,10.6,0.09433962264150944,2.1,6.609078590785908,0.00124179
638.78,490.21,8570.4,0.00011668,28.535,34.254,97.226,41.944,59.198,478.02,0.048032,40.966,0.063251,supercritical,CO2,C124389,carbon-dioxide,304.18,73.8,10.6,0.09433962264150944,2.1,6.642411924119241,0.0012368079999999998
638.78,492.67,8604.8,0.00011621,28.522,34.247,97.17,41.95,59.224,478.82,0.047588,41.054,0.063368,supercritical,CO2,C124389,carbon-dioxide,304.18,73.8,10.6,0.09433962264150944,2.1,6.675745257452575,0.0012318259999999999
638.78,495.13,8639.2,0.00011575,28.509,34.24,97.115,41.956,59.249,479.61,0.047146,41.141,0.063485,supercritical,CO2,C124389,carbon-dioxide,304.18,73.8,10.6,0.09433962264150944,2.1,6.709078590785908,0.0012269499999999999
638.78,497.58,8673.4,0.00011529,28.497,34.234,97.06,41.963,59.275,480.41,0.046707,41.229,0.063602,supercritical,CO2,C124389,carbon-dioxide,304.18,73.8,10.6,0.09433962264150944,2.1,6.742276422764228,0.0012220739999999999
638.78,500.04,8707.6,0.00011484,28.484,34.227,97.005,41.969,59.3,481.21,0.046271,41.317,0.063719,supercritical,CO2,C124389,carbon-dioxide,304.18,73.8,10.6,0.09433962264150944,2.1,6.775609756097562,0.001217304
638.78,502.5,8741.6,0.0001144,28.472,34.22,96.95,41.975,59.325,482.01,0.045837,41.405,0.063836,supercritical,CO2,C124389,carbon-dioxide,304.18,73.8,10.6,0.09433962264150944,2.1,6.808943089430895,0.0012126399999999999
638.78,504.96,8775.5,0.00011395,28.459,34.214,96.896,41.982,59.35,482.8,0.045406,41.493,0.063952,supercritical,CO2,C124389,carbon-dioxide,304.18,73.8,10.6,0.09433962264150944,2.1,6.842276422764227,0.00120787
638.78,507.42,8809.4,0.00011352,28.447,34.207,96.842,41.988,59.375,483.61,0.044978,41.581,0.064069,supercritical,CO2,C124389,carbon-dioxide,304.18,73.8,10.6,0.09433962264150944,2.1,6.875609756097561,0.0012033119999999998
638.78,509.88,8843.1,0.00011308,28.435,34.2,96.788,41.994,59.399,484.41,0.044552,41.67,0.064186,supercritical,CO2,C124389,carbon-dioxide,304.18,73.8,10.6,0.09433962264150944,2.1,6.9089430894308945,0.0011986479999999999
638.78,512.33,8876.7,0.00011265,28.422,34.194,96.734,42.0,59.423,485.21,0.044129,41.758,0.064302,supercritical,CO2,C124389,carbon-dioxide,304.18,73.8,10.6,0.09433962264150944,2.1,6.942140921409215,0.0011940899999999999
638.78,514.79,8910.2,0.00011223,28.41,34.187,96.681,42.006,59.447,486.01,0.043709,41.847,0.064419,supercritical,CO2,C124389,carbon-dioxide,304.18,73.8,10.6,0.09433962264150944,2.1,6.975474254742547,0.001189638
638.78,517.25,8943.6,0.00011181,28.398,34.181,96.628,42.013,59.471,486.82,0.043291,41.936,0.064535,supercritical,CO2,C124389,carbon-dioxide,304.18,73.8,10.6,0.09433962264150944,2.1,7.008807588075881,0.001185186
638.78,519.71,8976.9,0.0001114,28.385,34.175,96.575,42.019,59.494,487.62,0.042875,42.025,0.064652,supercritical,CO2,C124389,carbon-dioxide,304.18,73.8,10.6,0.09433962264150944,2.1,7.0421409214092145,0.0011808399999999998
638.78,522.17,9010.2,0.00011099,28.373,34.169,96.523,42.025,59.518,488.43,0.042463,42.114,0.064768,supercritical,CO2,C124389,carbon-dioxide,304.18,73.8,10.6,0.09433962264150944,2.1,7.075474254742547,0.001176494
638.78,524.63,9043.3,0.00011058,28.361,34.162,96.47,42.031,59.541,489.24,0.042052,42.204,0.064884,supercritical,CO2,C124389,carbon-dioxide,304.18,73.8,10.6,0.09433962264150944,2.1,7.108807588075881,0.001172148
638.78,527.08,9076.3,0.00011018,28.349,34.156,96.418,42.037,59.563,490.05,0.041645,42.293,0.065,supercritical,CO2,C124389,carbon-dioxide,304.18,73.8,10.6,0.09433962264150944,2.1,7.142005420054201,0.001167908
638.78,529.54,9109.2,0.00010978,28.337,34.15,96.366,42.043,59.586,490.86,0.04124,42.383,0.065116,supercritical,CO2,C124389,carbon-dioxide,304.18,73.8,10.6,0.09433962264150944,2.1,7.175338753387534,0.0011636679999999999
638.78,532.0,9142.0,0.00010939,28.325,34.144,96.315,42.049,59.608,491.67,0.040837,42.472,0.065232,supercritical,CO2,C124389,carbon-dioxide,304.18,73.8,10.6,0.09433962264150944,2.1,7.208672086720868,0.0011595339999999998
638.78,534.46,9174.7,0.000109,28.313,34.138,96.263,42.055,59.631,492.48,0.040437,42.562,0.065348,supercritical,CO2,C124389,carbon-dioxide,304.18,73.8,10.6,0.09433962264150944,2.1,7.242005420054201,0.0011554
638.78,536.92,9207.3,0.00010861,28.301,34.132,96.212,42.061,59.653,493.29,0.040039,42.652,0.065464,supercritical,CO2,C124389,carbon-dioxide,304.18,73.8,10.6,0.09433962264150944,2.1,7.275338753387533,0.001151266
638.78,539.38,9239.8,0.00010823,28.289,34.126,96.161,42.067,59.675,494.11,0.039644,42.743,0.065579,supercritical,CO2,C124389,carbon-dioxide,304.18,73.8,10.6,0.09433962264150944,2.1,7.308672086720867,0.0011472379999999999
638.78,541.83,9272.2,0.00010785,28.277,34.121,96.111,42.073,59.696,494.92,0.039251,42.833,0.065695,supercritical,CO2,C124389,carbon-dioxide,304.18,73.8,10.6,0.09433962264150944,2.1,7.341869918699188,0.00114321
638.78,544.29,9304.5,0.00010747,28.265,34.115,96.06,42.079,59.718,495.73,0.038861,42.923,0.06581,supercritical,CO2,C124389,carbon-dioxide,304.18,73.8,10.6,0.09433962264150944,2.1,7.37520325203252,0.0011391819999999999
638.78,546.75,9336.7,0.0001071,28.253,34.109,96.01,42.084,59.739,496.55,0.038473,43.014,0.065926,supercritical,CO2,C124389,carbon-dioxide,304.18,73.8,10.6,0.09433962264150944,2.1,7.408536585365854,0.00113526
638.78,549.21,9368.8,0.00010674,28.242,34.104,95.96,42.09,59.76,497.37,0.038087,43.105,0.066041,supercritical,CO2,C124389,carbon-dioxide,304.18,73.8,10.6,0.09433962264150944,2.1,7.4418699186991875,0.001131444
638.78,551.67,9400.9,0.00010637,28.23,34.098,95.91,42.096,59.78,498.18,0.037704,43.195,0.066156,supercritical,CO2,C124389,carbon-dioxide,304.18,73.8,10.6,0.09433962264150944,2.1,7.47520325203252,0.001127522
638.78,554.13,9432.8,0.00010601,28.218,34.093,95.861,42.102,59.801,499.0,0.037323,43.286,0.066271,supercritical,CO2,C124389,carbon-dioxide,304.18,73.8,10.6,0.09433962264150944,2.1,7.508536585365854,0.001123706
638.78,556.58,9464.6,0.00010566,28.206,34.087,95.812,42.108,59.821,499.82,0.036944,43.377,0.066386,supercritical,CO2,C124389,carbon-dioxide,304.18,73.8,10.6,0.09433962264150944,2.1,7.541734417344174,0.0011199959999999998
638.78,559.04,9496.3,0.0001053,28.195,34.082,95.763,42.114,59.842,500.64,0.036568,43.469,0.066501,supercritical,CO2,C124389,carbon-dioxide,304.18,73.8,10.6,0.09433962264150944,2.1,7.575067750677507,0.0011161799999999998
638.78,561.5,9527.9,0.00010495,28.183,34.076,95.714,42.119,59.862,501.46,0.036195,43.56,0.066615,supercritical,CO2,C124389,carbon-dioxide,304.18,73.8,10.6,0.09433962264150944,2.1,7.608401084010841,0.00111247
638.78,563.96,9559.4,0.00010461,28.172,34.071,95.665,42.125,59.882,502.28,0.035823,43.651,0.06673,supercritical,CO2,C124389,carbon-dioxide,304.18,73.8,10.6,0.09433962264150944,2.1,7.641734417344174,0.001108866
638.78,566.42,9590.9,0.00010427,28.16,34.066,95.617,42.131,59.901,503.1,0.035454,43.743,0.066844,supercritical,CO2,C124389,carbon-dioxide,304.18,73.8,10.6,0.09433962264150944,2.1,7.675067750677506,0.0011052619999999999
638.78,568.88,9622.2,0.00010393,28.149,34.061,95.569,42.137,59.921,503.92,0.035087,43.834,0.066959,supercritical,CO2,C124389,carbon-dioxide,304.18,73.8,10.6,0.09433962264150944,2.1,7.70840108401084,0.001101658
638.78,571.33,9653.4,0.00010359,28.137,34.055,95.521,42.142,59.94,504.74,0.034722,43.926,0.067073,supercritical,CO2,C124389,carbon-dioxide,304.18,73.8,10.6,0.09433962264150944,2.1,7.741598915989161,0.001098054
638.78,573.79,9684.6,0.00010326,28.126,34.05,95.473,42.148,59.959,505.57,0.03436,44.018,0.067187,supercritical,CO2,C124389,carbon-dioxide,304.18,73.8,10.6,0.09433962264150944,2.1,7.774932249322493,0.0010945559999999998
638.78,576.25,9715.6,0.00010293,28.114,34.045,95.425,42.154,59.978,506.39,0.033999,44.11,0.067301,supercritical,CO2,C124389,carbon-dioxide,304.18,73.8,10.6,0.09433962264150944,2.1,7.808265582655827,0.001091058
638.78,578.71,9746.6,0.0001026,28.103,34.04,95.378,42.159,59.997,507.21,0.033641,44.202,0.067415,supercritical,CO2,C124389,carbon-dioxide,304.18,73.8,10.6,0.09433962264150944,2.1,7.84159891598916,0.00108756
638.78,581.17,9777.4,0.00010228,28.091,34.035,95.331,42.165,60.015,508.04,0.033286,44.294,0.067528,supercritical,CO2,C124389,carbon-dioxide,304.18,73.8,10.6,0.09433962264150944,2.1,7.874932249322493,0.001084168
638.78,583.63,9808.2,0.00010196,28.08,34.031,95.284,42.17,60.034,508.86,0.032932,44.386,0.067642,supercritical,CO2,C124389,carbon-dioxide,304.18,73.8,10.6,0.09433962264150944,2.1,7.908265582655827,0.001080776
638.78,586.08,9838.8,0.00010164,28.069,34.026,95.237,42.176,60.052,509.69,0.032581,44.479,0.067755,supercritical,CO2,C124389,carbon-dioxide,304.18,73.8,10.6,0.09433962264150944,2.1,7.941463414634147,0.0010773839999999998
638.78,588.54,9869.4,0.00010132,28.058,34.021,95.191,42.182,60.07,510.51,0.032231,44.571,0.067869,supercritical,CO2,C124389,carbon-dioxide,304.18,73.8,10.6,0.09433962264150944,2.1,7.9747967479674795,0.001073992
638.78,591.0,9899.9,0.00010101,28.046,34.016,95.144,42.187,60.088,511.34,0.031884,44.664,0.067982,supercritical,CO2,C124389,carbon-dioxide,304.18,73.8,10.6,0.09433962264150944,2.1,8.008130081300813,0.0010707059999999998
638.78,593.46,9930.2,0.0001007,28.035,34.012,95.098,42.193,60.105,512.17,0.031539,44.756,0.068095,supercritical,CO2,C124389,carbon-dioxide,304.18,73.8,10.6,0.09433962264150944,2.1,8.041463414634148,0.00106742
638.78,595.92,9960.5,0.0001004,28.024,34.007,95.052,42.198,60.123,512.99,0.031196,44.849,0.068208,supercritical,CO2,C124389,carbon-dioxide,304.18,73.8,10.6,0.09433962264150944,2.1,8.07479674796748,0.00106424
638.78,598.38,9990.7,0.00010009,28.013,34.002,95.006,42.204,60.14,513.82,0.030855,44.942,0.06832,supercritical,CO2,C124389,carbon-dioxide,304.18,73.8,10.6,0.09433962264150944,2.1,8.108130081300814,0.0010609539999999998
638.78,600.83,10021.0,9.9792e-05,28.002,33.998,94.961,42.209,60.157,514.65,0.030516,45.035,0.068433,supercritical,CO2,C124389,carbon-dioxide,304.18,73.8,10.6,0.09433962264150944,2.1,8.141327913279135,0.0010577952
638.78,603.29,10051.0,9.9494e-05,27.991,33.993,94.915,42.215,60.174,515.48,0.03018,45.128,0.068546,supercritical,CO2,C124389,carbon-dioxide,304.18,73.8,10.6,0.09433962264150944,2.1,8.174661246612466,0.0010546364
638.78,605.75,10081.0,9.9199e-05,27.98,33.989,94.87,42.22,60.191,516.31,0.029845,45.221,0.068658,supercritical,CO2,C124389,carbon-dioxide,304.18,73.8,10.6,0.09433962264150944,2.1,8.2079945799458,0.0010515093999999999
638.78,608.21,10111.0,9.8906e-05,27.969,33.984,94.825,42.225,60.208,517.14,0.029512,45.314,0.06877,supercritical,CO2,C124389,carbon-dioxide,304.18,73.8,10.6,0.09433962264150944,2.1,8.241327913279134,0.0010484036
638.78,610.67,10140.0,9.8616e-05,27.958,33.98,94.78,42.231,60.224,517.97,0.029181,45.407,0.068882,supercritical,CO2,C124389,carbon-dioxide,304.18,73.8,10.6,0.09433962264150944,2.1,8.274661246612466,0.0010453296
638.78,613.13,10170.0,9.8329e-05,27.947,33.976,94.736,42.236,60.24,518.8,0.028853,45.501,0.068994,supercritical,CO2,C124389,carbon-dioxide,304.18,73.8,10.6,0.09433962264150944,2.1,8.3079945799458,0.0010422874
638.78,615.58,10200.0,9.8044e-05,27.936,33.972,94.691,42.242,60.256,519.63,0.028526,45.594,0.069106,supercritical,CO2,C124389,carbon-dioxide,304.18,73.8,10.6,0.09433962264150944,2.1,8.341192411924121,0.0010392664
638.78,618.04,10229.0,9.7761e-05,27.925,33.967,94.647,42.247,60.272,520.46,0.028201,45.688,0.069217,supercritical,CO2,C124389,carbon-dioxide,304.18,73.8,10.6,0.09433962264150944,2.1,8.374525745257452,0.0010362665999999999
638.78,620.5,10258.0,9.7481e-05,27.914,33.963,94.603,42.252,60.288,521.29,0.027879,45.781,0.069329,supercritical,CO2,C124389,carbon-dioxide,304.18,73.8,10.6,0.09433962264150944,2.1,8.407859078590786,0.0010332986
638.78,622.96,10288.0,9.7204e-05,27.904,33.959,94.559,42.258,60.304,522.12,0.027558,45.875,0.06944,supercritical,CO2,C124389,carbon-dioxide,304.18,73.8,10.6,0.09433962264150944,2.1,8.44119241192412,0.0010303623999999999
638.78,625.42,10317.0,9.6929e-05,27.893,33.955,94.515,42.263,60.319,522.95,0.027239,45.969,0.069551,supercritical,CO2,C124389,carbon-dioxide,304.18,73.8,10.6,0.09433962264150944,2.1,8.474525745257452,0.0010274474
638.78,627.88,10346.0,9.6656e-05,27.882,33.951,94.472,42.268,60.335,523.78,0.026922,46.063,0.069662,supercritical,CO2,C124389,carbon-dioxide,304.18,73.8,10.6,0.09433962264150944,2.1,8.507859078590787,0.0010245535999999999
638.78,630.33,10375.0,9.6386e-05,27.872,33.947,94.428,42.274,60.35,524.62,0.026607,46.156,0.069773,supercritical,CO2,C124389,carbon-dioxide,304.18,73.8,10.6,0.09433962264150944,2.1,8.541056910569107,0.0010216916
638.78,632.79,10404.0,9.6118e-05,27.861,33.943,94.385,42.279,60.365,525.45,0.026294,46.25,0.069884,supercritical,CO2,C124389,carbon-dioxide,304.18,73.8,10.6,0.09433962264150944,2.1,8.574390243902439,0.0010188508
638.78,635.25,10433.0,9.5852e-05,27.85,33.939,94.342,42.284,60.38,526.28,0.025982,46.344,0.069995,supercritical,CO2,C124389,carbon-dioxide,304.18,73.8,10.6,0.09433962264150944,2.1,8.607723577235772,0.0010160312
638.78,637.71,10462.0,9.5589e-05,27.84,33.935,94.299,42.289,60.395,527.11,0.025673,46.439,0.070105,supercritical,CO2,C124389,carbon-dioxide,304.18,73.8,10.6,0.09433962264150944,2.1,8.641056910569107,0.0010132434
638.78,640.17,10490.0,9.5327e-05,27.829,33.932,94.257,42.295,60.409,527.95,0.025365,46.533,0.070215,supercritical,CO2,C124389,carbon-dioxide,304.18,73.8,10.6,0.09433962264150944,2.1,8.674390243902439,0.0010104661999999999
638.78,642.63,10519.0,9.5068e-05,27.819,33.928,94.214,42.3,60.424,528.78,0.025059,46.627,0.070325,supercritical,CO2,C124389,carbon-dioxide,304.18,73.8,10.6,0.09433962264150944,2.1,8.707723577235774,0.0010077208
638.78,645.08,10547.0,9.4811e-05,27.808,33.924,94.172,42.305,60.438,529.61,0.024755,46.721,0.070435,supercritical,CO2,C124389,carbon-dioxide,304.18,73.8,10.6,0.09433962264150944,2.1,8.740921409214094,0.0010049966
638.78,647.54,10576.0,9.4557e-05,27.798,33.92,94.13,42.31,60.452,530.45,0.024453,46.816,0.070545,supercritical,CO2,C124389,carbon-dioxide,304.18,73.8,10.6,0.09433962264150944,2.1,8.774254742547425,0.0010023042
638.78,650.0,10604.0,9.4304e-05,27.787,33.917,94.088,42.315,60.466,531.28,0.024153,46.91,0.070655,supercritical,CO2,C124389,carbon-dioxide,304.18,73.8,10.6,0.09433962264150944,2.1,8.807588075880759,0.0009996223999999998
638.78,652.46,10632.0,9.4054e-05,27.777,33.913,94.046,42.321,60.48,532.11,0.023854,47.005,0.070764,supercritical,CO2,C124389,carbon-dioxide,304.18,73.8,10.6,0.09433962264150944,2.1,8.840921409214094,0.0009969724
638.78,654.92,10660.0,9.3805e-05,27.766,33.91,94.004,42.326,60.494,532.95,0.023557,47.099,0.070874,supercritical,CO2,C124389,carbon-dioxide,304.18,73.8,10.6,0.09433962264150944,2.1,8.874254742547425,0.000994333
638.78,657.38,10688.0,9.3559e-05,27.756,33.906,93.963,42.331,60.507,533.78,0.023262,47.194,0.070983,supercritical,CO2,C124389,carbon-dioxide,304.18,73.8,10.6,0.09433962264150944,2.1,8.90758807588076,0.0009917253999999999
638.78,659.83,10716.0,9.3315e-05,27.746,33.903,93.921,42.336,60.521,534.62,0.022969,47.288,0.071092,supercritical,CO2,C124389,carbon-dioxide,304.18,73.8,10.6,0.09433962264150944,2.1,8.94078590785908,0.000989139
638.78,662.29,10744.0,9.3073e-05,27.735,33.899,93.88,42.341,60.534,535.45,0.022677,47.383,0.071201,supercritical,CO2,C124389,carbon-dioxide,304.18,73.8,10.6,0.09433962264150944,2.1,8.974119241192412,0.0009865738
638.78,664.75,10772.0,9.2832e-05,27.725,33.896,93.839,42.346,60.547,536.28,0.022387,47.478,0.07131,supercritical,CO2,C124389,carbon-dioxide,304.18,73.8,10.6,0.09433962264150944,2.1,9.007452574525745,0.0009840191999999999
638.78,667.21,10800.0,9.2594e-05,27.715,33.893,93.798,42.351,60.56,537.12,0.022099,47.573,0.071418,supercritical,CO2,C124389,carbon-dioxide,304.18,73.8,10.6,0.09433962264150944,2.1,9.04078590785908,0.0009814964
638.78,669.67,10827.0,9.2357e-05,27.705,33.89,93.758,42.356,60.573,537.95,0.021812,47.668,0.071527,supercritical,CO2,C124389,carbon-dioxide,304.18,73.8,10.6,0.09433962264150944,2.1,9.074119241192411,0.0009789841999999999
638.78,672.13,10855.0,9.2123e-05,27.694,33.886,93.717,42.361,60.586,538.79,0.021527,47.763,0.071635,supercritical,CO2,C124389,carbon-dioxide,304.18,73.8,10.6,0.09433962264150944,2.1,9.107452574525746,0.0009765037999999999