Temperature (K),Pressure (bar),Density (mol/m3),Volume (m3/mol),Internal Energy (kJ/mol),Enthalpy (kJ/mol),Entropy (J/mol*K),Cv (J/mol*K),Cp (J/mol*K),Sound Spd. (m/s),Joule-Thomson (K/bar),Viscosity (uPa*s),Therm. Cond. (W/m*K),Phase,substance,substance_id,substance_name,Tc,Pc,rhoc,Vmc,Tr,Pr,Vmr
365.02,448.42,18499.0,5.4058e-05,13.467,15.891,59.812,39.732,78.863,585.2,0.025467,76.118,0.092967,supercritical,CO2,C124389,carbon-dioxide,304.18,73.8,10.6,0.09433962264150944,1.2,6.0761517615176155,0.0005730148
365.02,450.88,18531.0,5.3964e-05,13.453,15.886,59.762,39.734,78.749,587.14,0.02494,76.373,0.093201,supercritical,CO2,C124389,carbon-dioxide,304.18,73.8,10.6,0.09433962264150944,1.2,6.109485094850949,0.0005720184
365.02,453.33,18563.0,5.3871e-05,13.439,15.881,59.713,39.736,78.637,589.07,0.024421,76.628,0.093435,supercritical,CO2,C124389,carbon-dioxide,304.18,73.8,10.6,0.09433962264150944,1.2,6.142682926829268,0.0005710326
365.02,455.79,18595.0,5.3779e-05,13.425,15.877,59.664,39.738,78.527,591.0,0.023909,76.881,0.093667,supercritical,CO2,C124389,carbon-dioxide,304.18,73.8,10.6,0.09433962264150944,1.2,6.176016260162602,0.0005700573999999999
365.02,458.25,18626.0,5.3688e-05,13.412,15.872,59.615,39.741,78.418,592.91,0.023405,77.133,0.093898,supercritical,CO2,C124389,carbon-dioxide,304.18,73.8,10.6,0.09433962264150944,1.2,6.2093495934959355,0.0005690927999999999
365.02,460.71,18657.0,5.3598e-05,13.398,15.868,59.567,39.743,78.31,594.81,0.022909,77.385,0.094129,supercritical,CO2,C124389,carbon-dioxide,304.18,73.8,10.6,0.09433962264150944,1.2,6.242682926829268,0.0005681387999999999
365.02,463.17,18688.0,5.3509e-05,13.385,15.863,59.519,39.745,78.204,596.71,0.022419,77.636,0.094358,supercritical,CO2,C124389,carbon-dioxide,304.18,73.8,10.6,0.09433962264150944,1.2,6.276016260162602,0.0005671954
365.02,465.63,18719.0,5.3421e-05,13.372,15.859,59.471,39.747,78.099,598.6,0.021937,77.885,0.094587,supercritical,CO2,C124389,carbon-dioxide,304.18,73.8,10.6,0.09433962264150944,1.2,6.309349593495935,0.0005662626
365.02,468.08,18750.0,5.3334e-05,13.358,15.855,59.424,39.75,77.996,600.48,0.021461,78.134,0.094815,supercritical,CO2,C124389,carbon-dioxide,304.18,73.8,10.6,0.09433962264150944,1.2,6.342547425474255,0.0005653403999999999
365.02,470.54,18780.0,5.3248e-05,13.345,15.851,59.377,39.752,77.894,602.35,0.020993,78.382,0.095041,supercritical,CO2,C124389,carbon-dioxide,304.18,73.8,10.6,0.09433962264150944,1.2,6.375880758807589,0.0005644288
365.02,473.0,18810.0,5.3163e-05,13.332,15.847,59.33,39.755,77.794,604.21,0.02053,78.628,0.095267,supercritical,CO2,C124389,carbon-dioxide,304.18,73.8,10.6,0.09433962264150944,1.2,6.409214092140922,0.0005635277999999999
365.02,475.46,18840.0,5.3079e-05,13.319,15.843,59.283,39.757,77.694,606.07,0.020075,78.874,0.095492,supercritical,CO2,C124389,carbon-dioxide,304.18,73.8,10.6,0.09433962264150944,1.2,6.442547425474254,0.0005626374
365.02,477.92,18869.0,5.2996e-05,13.306,15.839,59.237,39.76,77.596,607.91,0.019625,79.12,0.095716,supercritical,CO2,C124389,carbon-dioxide,304.18,73.8,10.6,0.09433962264150944,1.2,6.475880758807588,0.0005617576
365.02,480.38,18899.0,5.2913e-05,13.294,15.835,59.192,39.762,77.5,609.75,0.019182,79.364,0.095939,supercritical,CO2,C124389,carbon-dioxide,304.18,73.8,10.6,0.09433962264150944,1.2,6.509214092140922,0.0005608777999999999
365.02,482.83,18928.0,5.2832e-05,13.281,15.832,59.146,39.765,77.404,611.58,0.018744,79.607,0.096161,supercritical,CO2,C124389,carbon-dioxide,304.18,73.8,10.6,0.09433962264150944,1.2,6.542411924119241,0.0005600192
365.02,485.29,18957.0,5.2751e-05,13.268,15.828,59.101,39.768,77.31,613.4,0.018313,79.85,0.096383,supercritical,CO2,C124389,carbon-dioxide,304.18,73.8,10.6,0.09433962264150944,1.2,6.575745257452575,0.0005591605999999999
365.02,487.75,18986.0,5.2671e-05,13.256,15.825,59.056,39.77,77.217,615.22,0.017888,80.091,0.096603,supercritical,CO2,C124389,carbon-dioxide,304.18,73.8,10.6,0.09433962264150944,1.2,6.609078590785908,0.0005583125999999999
365.02,490.21,19014.0,5.2592e-05,13.243,15.821,59.011,39.773,77.125,617.02,0.017468,80.332,0.096823,supercritical,CO2,C124389,carbon-dioxide,304.18,73.8,10.6,0.09433962264150944,1.2,6.642411924119241,0.0005574751999999999
365.02,492.67,19043.0,5.2514e-05,13.231,15.818,58.967,39.776,77.035,618.82,0.017054,80.572,0.097042,supercritical,CO2,C124389,carbon-dioxide,304.18,73.8,10.6,0.09433962264150944,1.2,6.675745257452575,0.0005566484
365.02,495.13,19071.0,5.2436e-05,13.219,15.815,58.923,39.779,76.945,620.61,0.016645,80.812,0.09726,supercritical,CO2,C124389,carbon-dioxide,304.18,73.8,10.6,0.09433962264150944,1.2,6.709078590785908,0.0005558216
365.02,497.58,19099.0,5.236e-05,13.207,15.812,58.879,39.781,76.857,622.39,0.016241,81.05,0.097477,supercritical,CO2,C124389,carbon-dioxide,304.18,73.8,10.6,0.09433962264150944,1.2,6.742276422764228,0.000555016
365.02,500.04,19126.0,5.2284e-05,13.194,15.809,58.835,39.784,76.77,624.17,0.015843,81.288,0.097694,supercritical,CO2,C124389,carbon-dioxide,304.18,73.8,10.6,0.09433962264150944,1.2,6.775609756097562,0.0005542104
365.02,502.5,19154.0,5.2208e-05,13.182,15.806,58.792,39.787,76.684,625.94,0.01545,81.525,0.09791,supercritical,CO2,C124389,carbon-dioxide,304.18,73.8,10.6,0.09433962264150944,1.2,6.808943089430895,0.0005534047999999999
365.02,504.96,19181.0,5.2134e-05,13.171,15.803,58.749,39.79,76.598,627.7,0.015062,81.761,0.098125,supercritical,CO2,C124389,carbon-dioxide,304.18,73.8,10.6,0.09433962264150944,1.2,6.842276422764227,0.0005526204
365.02,507.42,19209.0,5.206e-05,13.159,15.8,58.706,39.793,76.514,629.45,0.014679,81.997,0.098339,supercritical,CO2,C124389,carbon-dioxide,304.18,73.8,10.6,0.09433962264150944,1.2,6.875609756097561,0.000551836
365.02,509.88,19236.0,5.1987e-05,13.147,15.798,58.664,39.796,76.431,631.2,0.014301,82.231,0.098553,supercritical,CO2,C124389,carbon-dioxide,304.18,73.8,10.6,0.09433962264150944,1.2,6.9089430894308945,0.0005510622
365.02,512.33,19263.0,5.1914e-05,13.135,15.795,58.622,39.799,76.349,632.94,0.013928,82.465,0.098765,supercritical,CO2,C124389,carbon-dioxide,304.18,73.8,10.6,0.09433962264150944,1.2,6.942140921409215,0.0005502883999999999
365.02,514.79,19289.0,5.1843e-05,13.123,15.792,58.58,39.802,76.268,634.67,0.013559,82.699,0.098977,supercritical,CO2,C124389,carbon-dioxide,304.18,73.8,10.6,0.09433962264150944,1.2,6.975474254742547,0.0005495357999999999
365.02,517.25,19316.0,5.1771e-05,13.112,15.79,58.538,39.805,76.188,636.4,0.013195,82.931,0.099189,supercritical,CO2,C124389,carbon-dioxide,304.18,73.8,10.6,0.09433962264150944,1.2,7.008807588075881,0.0005487726
365.02,519.71,19342.0,5.1701e-05,13.1,15.787,58.496,39.808,76.108,638.12,0.012836,83.163,0.099399,supercritical,CO2,C124389,carbon-dioxide,304.18,73.8,10.6,0.09433962264150944,1.2,7.0421409214092145,0.0005480305999999999
365.02,522.17,19368.0,5.1631e-05,13.089,15.785,58.455,39.812,76.03,639.83,0.01248,83.394,0.099609,supercritical,CO2,C124389,carbon-dioxide,304.18,73.8,10.6,0.09433962264150944,1.2,7.075474254742547,0.0005472885999999999
365.02,524.63,19394.0,5.1562e-05,13.078,15.783,58.414,39.815,75.953,641.53,0.01213,83.625,0.099818,supercritical,CO2,C124389,carbon-dioxide,304.18,73.8,10.6,0.09433962264150944,1.2,7.108807588075881,0.0005465572
365.02,527.08,19420.0,5.1494e-05,13.066,15.78,58.373,39.818,75.876,643.23,0.011783,83.855,0.10003,supercritical,CO2,C124389,carbon-dioxide,304.18,73.8,10.6,0.09433962264150944,1.2,7.142005420054201,0.0005458364
365.02,529.54,19446.0,5.1426e-05,13.055,15.778,58.333,39.821,75.801,644.92,0.011441,84.084,0.10023,supercritical,CO2,C124389,carbon-dioxide,304.18,73.8,10.6,0.09433962264150944,1.2,7.175338753387534,0.0005451156
365.02,532.0,19471.0,5.1358e-05,13.044,15.776,58.292,39.824,75.726,646.61,0.011103,84.312,0.10044,supercritical,CO2,C124389,carbon-dioxide,304.18,73.8,10.6,0.09433962264150944,1.2,7.208672086720868,0.0005443948
365.02,534.46,19496.0,5.1292e-05,13.033,15.774,58.252,39.828,75.652,648.29,0.010768,84.54,0.10065,supercritical,CO2,C124389,carbon-dioxide,304.18,73.8,10.6,0.09433962264150944,1.2,7.242005420054201,0.0005436952
365.02,536.92,19522.0,5.1226e-05,13.022,15.772,58.212,39.831,75.579,649.96,0.010438,84.767,0.10085,supercritical,CO2,C124389,carbon-dioxide,304.18,73.8,10.6,0.09433962264150944,1.2,7.275338753387533,0.0005429956
365.02,539.38,19547.0,5.116e-05,13.011,15.77,58.173,39.834,75.506,651.62,0.010112,84.994,0.10106,supercritical,CO2,C124389,carbon-dioxide,304.18,73.8,10.6,0.09433962264150944,1.2,7.308672086720867,0.0005422959999999999
365.02,541.83,19571.0,5.1095e-05,13.0,15.768,58.133,39.838,75.435,653.28,0.0097893,85.22,0.10126,supercritical,CO2,C124389,carbon-dioxide,304.18,73.8,10.6,0.09433962264150944,1.2,7.341869918699188,0.0005416069999999999
365.02,544.29,19596.0,5.1031e-05,12.989,15.767,58.094,39.841,75.364,654.94,0.0094705,85.445,0.10147,supercritical,CO2,C124389,carbon-dioxide,304.18,73.8,10.6,0.09433962264150944,1.2,7.37520325203252,0.0005409286
365.02,546.75,19621.0,5.0967e-05,12.978,15.765,58.055,39.845,75.294,656.58,0.0091555,85.67,0.10167,supercritical,CO2,C124389,carbon-dioxide,304.18,73.8,10.6,0.09433962264150944,1.2,7.408536585365854,0.0005402502
365.02,549.21,19645.0,5.0903e-05,12.968,15.763,58.016,39.848,75.225,658.22,0.008844,85.894,0.10187,supercritical,CO2,C124389,carbon-dioxide,304.18,73.8,10.6,0.09433962264150944,1.2,7.4418699186991875,0.0005395717999999999
365.02,551.67,19669.0,5.0841e-05,12.957,15.762,57.977,39.852,75.157,659.86,0.0085362,86.118,0.10208,supercritical,CO2,C124389,carbon-dioxide,304.18,73.8,10.6,0.09433962264150944,1.2,7.47520325203252,0.0005389146
365.02,554.13,19693.0,5.0778e-05,12.946,15.76,57.939,39.855,75.089,661.49,0.0082318,86.341,0.10228,supercritical,CO2,C124389,carbon-dioxide,304.18,73.8,10.6,0.09433962264150944,1.2,7.508536585365854,0.0005382468
365.02,556.58,19717.0,5.0717e-05,12.936,15.759,57.9,39.859,75.022,663.11,0.0079309,86.563,0.10248,supercritical,CO2,C124389,carbon-dioxide,304.18,73.8,10.6,0.09433962264150944,1.2,7.541734417344174,0.0005376002
365.02,559.04,19741.0,5.0655e-05,12.925,15.757,57.862,39.862,74.956,664.73,0.0076334,86.785,0.10268,supercritical,CO2,C124389,carbon-dioxide,304.18,73.8,10.6,0.09433962264150944,1.2,7.575067750677507,0.000536943
365.02,561.5,19765.0,5.0595e-05,12.915,15.756,57.825,39.866,74.89,666.34,0.0073392,87.006,0.10288,supercritical,CO2,C124389,carbon-dioxide,304.18,73.8,10.6,0.09433962264150944,1.2,7.608401084010841,0.000536307
365.02,563.96,19789.0,5.0534e-05,12.905,15.754,57.787,39.869,74.826,667.94,0.0070483,87.227,0.10308,supercritical,CO2,C124389,carbon-dioxide,304.18,73.8,10.6,0.09433962264150944,1.2,7.641734417344174,0.0005356604
365.02,566.42,19812.0,5.0475e-05,12.894,15.753,57.749,39.873,74.762,669.54,0.0067606,87.447,0.10328,supercritical,CO2,C124389,carbon-dioxide,304.18,73.8,10.6,0.09433962264150944,1.2,7.675067750677506,0.000535035
365.02,568.88,19835.0,5.0415e-05,12.884,15.752,57.712,39.877,74.698,671.13,0.006476,87.666,0.10347,supercritical,CO2,C124389,carbon-dioxide,304.18,73.8,10.6,0.09433962264150944,1.2,7.70840108401084,0.000534399
365.02,571.33,19858.0,5.0356e-05,12.874,15.751,57.675,39.88,74.635,672.72,0.0061946,87.885,0.10367,supercritical,CO2,C124389,carbon-dioxide,304.18,73.8,10.6,0.09433962264150944,1.2,7.741598915989161,0.0005337736
365.02,573.79,19881.0,5.0298e-05,12.864,15.75,57.638,39.884,74.573,674.3,0.0059163,88.104,0.10387,supercritical,CO2,C124389,carbon-dioxide,304.18,73.8,10.6,0.09433962264150944,1.2,7.774932249322493,0.0005331588
365.02,576.25,19904.0,5.024e-05,12.854,15.749,57.601,39.888,74.512,675.88,0.0056409,88.322,0.10406,supercritical,CO2,C124389,carbon-dioxide,304.18,73.8,10.6,0.09433962264150944,1.2,7.808265582655827,0.0005325439999999999
365.02,578.71,19927.0,5.0183e-05,12.844,15.748,57.565,39.891,74.451,677.45,0.0053685,88.539,0.10426,supercritical,CO2,C124389,carbon-dioxide,304.18,73.8,10.6,0.09433962264150944,1.2,7.84159891598916,0.0005319397999999999
365.02,581.17,19950.0,5.0126e-05,12.834,15.747,57.528,39.895,74.39,679.02,0.005099,88.756,0.10445,supercritical,CO2,C124389,carbon-dioxide,304.18,73.8,10.6,0.09433962264150944,1.2,7.874932249322493,0.0005313356
365.02,583.63,19972.0,5.0069e-05,12.824,15.746,57.492,39.899,74.331,680.58,0.0048324,88.973,0.10465,supercritical,CO2,C124389,carbon-dioxide,304.18,73.8,10.6,0.09433962264150944,1.2,7.908265582655827,0.0005307313999999999
365.02,586.08,19995.0,5.0013e-05,12.814,15.745,57.456,39.902,74.272,682.13,0.0045687,89.188,0.10484,supercritical,CO2,C124389,carbon-dioxide,304.18,73.8,10.6,0.09433962264150944,1.2,7.941463414634147,0.0005301377999999999
365.02,588.54,20017.0,4.9957e-05,12.804,15.744,57.42,39.906,74.213,683.68,0.0043077,89.404,0.10504,supercritical,CO2,C124389,carbon-dioxide,304.18,73.8,10.6,0.09433962264150944,1.2,7.9747967479674795,0.0005295442
365.02,591.0,20039.0,4.9902e-05,12.794,15.743,57.384,39.91,74.155,685.22,0.0040494,89.619,0.10523,supercritical,CO2,C124389,carbon-dioxide,304.18,73.8,10.6,0.09433962264150944,1.2,8.008130081300813,0.0005289612
365.02,593.46,20061.0,4.9847e-05,12.784,15.743,57.349,39.914,74.098,686.76,0.0037938,89.833,0.10542,supercritical,CO2,C124389,carbon-dioxide,304.18,73.8,10.6,0.09433962264150944,1.2,8.041463414634148,0.0005283782
365.02,595.92,20083.0,4.9793e-05,12.775,15.742,57.313,39.918,74.041,688.3,0.0035409,90.047,0.10561,supercritical,CO2,C124389,carbon-dioxide,304.18,73.8,10.6,0.09433962264150944,1.2,8.07479674796748,0.0005278058
365.02,598.38,20105.0,4.9739e-05,12.765,15.741,57.278,39.922,73.985,689.82,0.0032906,90.26,0.1058,supercritical,CO2,C124389,carbon-dioxide,304.18,73.8,10.6,0.09433962264150944,1.2,8.108130081300814,0.0005272333999999999
365.02,600.83,20127.0,4.9685e-05,12.756,15.741,57.243,39.925,73.929,691.35,0.0030428,90.473,0.106,supercritical,CO2,C124389,carbon-dioxide,304.18,73.8,10.6,0.09433962264150944,1.2,8.141327913279135,0.000526661
365.02,603.29,20148.0,4.9632e-05,12.746,15.74,57.208,39.929,73.874,692.87,0.0027976,90.686,0.10619,supercritical,CO2,C124389,carbon-dioxide,304.18,73.8,10.6,0.09433962264150944,1.2,8.174661246612466,0.0005260992
365.02,605.75,20170.0,4.9579e-05,12.736,15.74,57.174,39.933,73.819,694.38,0.0025548,90.898,0.10638,supercritical,CO2,C124389,carbon-dioxide,304.18,73.8,10.6,0.09433962264150944,1.2,8.2079945799458,0.0005255374
365.02,608.21,20191.0,4.9527e-05,12.727,15.739,57.139,39.937,73.765,695.89,0.0023146,91.109,0.10657,supercritical,CO2,C124389,carbon-dioxide,304.18,73.8,10.6,0.09433962264150944,1.2,8.241327913279134,0.0005249862
365.02,610.67,20212.0,4.9475e-05,12.718,15.739,57.105,39.941,73.712,697.39,0.0020767,91.321,0.10675,supercritical,CO2,C124389,carbon-dioxide,304.18,73.8,10.6,0.09433962264150944,1.2,8.274661246612466,0.000524435
365.02,613.13,20233.0,4.9423e-05,12.708,15.739,57.07,39.945,73.659,698.89,0.0018412,91.531,0.10694,supercritical,CO2,C124389,carbon-dioxide,304.18,73.8,10.6,0.09433962264150944,1.2,8.3079945799458,0.0005238837999999999
365.02,615.58,20255.0,4.9372e-05,12.699,15.738,57.036,39.949,73.606,700.38,0.001608,91.741,0.10713,supercritical,CO2,C124389,carbon-dioxide,304.18,73.8,10.6,0.09433962264150944,1.2,8.341192411924121,0.0005233432
365.02,618.04,20275.0,4.9321e-05,12.69,15.738,57.002,39.953,73.554,701.87,0.0013772,91.951,0.10732,supercritical,CO2,C124389,carbon-dioxide,304.18,73.8,10.6,0.09433962264150944,1.2,8.374525745257452,0.0005228025999999999
365.02,620.5,20296.0,4.927e-05,12.681,15.738,56.968,39.957,73.502,703.35,0.0011486,92.16,0.10751,supercritical,CO2,C124389,carbon-dioxide,304.18,73.8,10.6,0.09433962264150944,1.2,8.407859078590786,0.000522262
365.02,622.96,20317.0,4.922e-05,12.671,15.738,56.935,39.961,73.451,704.83,0.00092229,92.369,0.10769,supercritical,CO2,C124389,carbon-dioxide,304.18,73.8,10.6,0.09433962264150944,1.2,8.44119241192412,0.000521732
365.02,625.42,20338.0,4.917e-05,12.662,15.737,56.901,39.965,73.401,706.31,0.00069816,92.578,0.10788,supercritical,CO2,C124389,carbon-dioxide,304.18,73.8,10.6,0.09433962264150944,1.2,8.474525745257452,0.0005212019999999999
365.02,627.88,20358.0,4.912e-05,12.653,15.737,56.868,39.969,73.351,707.77,0.00047621,92.786,0.10806,supercritical,CO2,C124389,carbon-dioxide,304.18,73.8,10.6,0.09433962264150944,1.2,8.507859078590787,0.0005206719999999999
365.02,630.33,20379.0,4.9071e-05,12.644,15.737,56.834,39.973,73.301,709.24,0.0002564,92.993,0.10825,supercritical,CO2,C124389,carbon-dioxide,304.18,73.8,10.6,0.09433962264150944,1.2,8.541056910569107,0.0005201526
365.02,632.79,20399.0,4.9022e-05,12.635,15.737,56.801,39.977,73.252,710.7,3.8705e-05,93.201,0.10843,supercritical,CO2,C124389,carbon-dioxide,304.18,73.8,10.6,0.09433962264150944,1.2,8.574390243902439,0.0005196332
365.02,635.25,20419.0,4.8974e-05,12.626,15.737,56.768,39.981,73.203,712.16,-0.00017691,93.407,0.10862,supercritical,CO2,C124389,carbon-dioxide,304.18,73.8,10.6,0.09433962264150944,1.2,8.607723577235772,0.0005191244
365.02,637.71,20439.0,4.8926e-05,12.617,15.737,56.736,39.985,73.154,713.61,-0.00039048,93.614,0.1088,supercritical,CO2,C124389,carbon-dioxide,304.18,73.8,10.6,0.09433962264150944,1.2,8.641056910569107,0.0005186155999999999
365.02,640.17,20459.0,4.8878e-05,12.608,15.737,56.703,39.99,73.106,715.05,-0.00060202,93.82,0.10899,supercritical,CO2,C124389,carbon-dioxide,304.18,73.8,10.6,0.09433962264150944,1.2,8.674390243902439,0.0005181068
365.02,642.63,20479.0,4.883e-05,12.6,15.738,56.67,39.994,73.059,716.49,-0.00081157,94.025,0.10917,supercritical,CO2,C124389,carbon-dioxide,304.18,73.8,10.6,0.09433962264150944,1.2,8.707723577235774,0.000517598
365.02,645.08,20499.0,4.8783e-05,12.591,15.738,56.638,39.998,73.012,717.93,-0.0010192,94.231,0.10935,supercritical,CO2,C124389,carbon-dioxide,304.18,73.8,10.6,0.09433962264150944,1.2,8.740921409214094,0.0005170998
365.02,647.54,20519.0,4.8736e-05,12.582,15.738,56.606,40.002,72.965,719.37,-0.0012248,94.435,0.10953,supercritical,CO2,C124389,carbon-dioxide,304.18,73.8,10.6,0.09433962264150944,1.2,8.774254742547425,0.0005166016
365.02,650.0,20538.0,4.8689e-05,12.573,15.738,56.573,40.006,72.919,720.79,-0.0014285,94.64,0.10972,supercritical,CO2,C124389,carbon-dioxide,304.18,73.8,10.6,0.09433962264150944,1.2,8.807588075880759,0.0005161034
365.02,652.46,20558.0,4.8643e-05,12.565,15.738,56.541,40.01,72.873,722.22,-0.0016304,94.844,0.1099,supercritical,CO2,C124389,carbon-dioxide,304.18,73.8,10.6,0.09433962264150944,1.2,8.840921409214094,0.0005156158
365.02,654.92,20577.0,4.8597e-05,12.556,15.739,56.51,40.015,72.827,723.64,-0.0018304,95.047,0.11008,supercritical,CO2,C124389,carbon-dioxide,304.18,73.8,10.6,0.09433962264150944,1.2,8.874254742547425,0.0005151282
365.02,657.38,20597.0,4.8551e-05,12.547,15.739,56.478,40.019,72.782,725.05,-0.0020285,95.251,0.11026,supercritical,CO2,C124389,carbon-dioxide,304.18,73.8,10.6,0.09433962264150944,1.2,8.90758807588076,0.0005146406
365.02,659.83,20616.0,4.8506e-05,12.539,15.739,56.446,40.023,72.738,726.47,-0.0022249,95.454,0.11044,supercritical,CO2,C124389,carbon-dioxide,304.18,73.8,10.6,0.09433962264150944,1.2,8.94078590785908,0.0005141636
365.02,662.29,20635.0,4.8461e-05,12.53,15.74,56.415,40.027,72.693,727.87,-0.0024195,95.656,0.11062,supercritical,CO2,C124389,carbon-dioxide,304.18,73.8,10.6,0.09433962264150944,1.2,8.974119241192412,0.0005136866
365.02,664.75,20654.0,4.8416e-05,12.522,15.74,56.383,40.031,72.65,729.28,-0.0026123,95.858,0.1108,supercritical,CO2,C124389,carbon-dioxide,304.18,73.8,10.6,0.09433962264150944,1.2,9.007452574525745,0.0005132095999999999
365.02,667.21,20673.0,4.8372e-05,12.513,15.741,56.352,40.036,72.606,730.67,-0.0028034,96.06,0.11098,supercritical,CO2,C124389,carbon-dioxide,304.18,73.8,10.6,0.09433962264150944,1.2,9.04078590785908,0.0005127431999999999
365.02,669.67,20692.0,4.8327e-05,12.505,15.741,56.321,40.04,72.563,732.07,-0.0029927,96.261,0.11116,supercritical,CO2,C124389,carbon-dioxide,304.18,73.8,10.6,0.09433962264150944,1.2,9.074119241192411,0.0005122662