Temperature (K),Pressure (bar),Density (mol/m3),Volume (m3/mol),Internal Energy (kJ/mol),Enthalpy (kJ/mol),Entropy (J/mol*K),Cv (J/mol*K),Cp (J/mol*K),Sound Spd. (m/s),Joule-Thomson (K/bar),Viscosity (uPa*s),Therm. Cond. (W/m*K),Phase,substance,substance_id,substance_name,Tc,Pc,rhoc,Vmc,Tr,Pr,Vmr
304.18,672.13,24093.0,4.1507e-05,8.4913,11.281,42.917,40.839,74.003,905.64,-0.016174,146.69,0.14549,supercritical,CO2,C124389,carbon-dioxide,304.18,73.8,10.6,0.09433962264150944,1.0,9.107452574525746,0.0004399742
304.18,674.58,24105.0,4.1485e-05,8.4855,11.284,42.893,40.844,73.97,906.85,-0.016261,146.94,0.14566,supercritical,CO2,C124389,carbon-dioxide,304.18,73.8,10.6,0.09433962264150944,1.0,9.140650406504067,0.00043974099999999995
304.18,677.04,24117.0,4.1464e-05,8.4797,11.287,42.869,40.849,73.936,908.07,-0.016347,147.18,0.14583,supercritical,CO2,C124389,carbon-dioxide,304.18,73.8,10.6,0.09433962264150944,1.0,9.173983739837398,0.0004395184
304.18,679.5,24129.0,4.1443e-05,8.4739,11.29,42.846,40.854,73.904,909.28,-0.016433,147.43,0.146,supercritical,CO2,C124389,carbon-dioxide,304.18,73.8,10.6,0.09433962264150944,1.0,9.207317073170731,0.0004392958
304.18,681.96,24142.0,4.1422e-05,8.4681,11.293,42.822,40.858,73.871,910.48,-0.016518,147.68,0.14617,supercritical,CO2,C124389,carbon-dioxide,304.18,73.8,10.6,0.09433962264150944,1.0,9.240650406504066,0.00043907319999999996
304.18,684.42,24154.0,4.1401e-05,8.4624,11.296,42.799,40.863,73.838,911.69,-0.016602,147.92,0.14633,supercritical,CO2,C124389,carbon-dioxide,304.18,73.8,10.6,0.09433962264150944,1.0,9.273983739837398,0.00043885059999999995
304.18,686.88,24166.0,4.1381e-05,8.4566,11.299,42.775,40.868,73.806,912.89,-0.016686,148.17,0.1465,supercritical,CO2,C124389,carbon-dioxide,304.18,73.8,10.6,0.09433962264150944,1.0,9.307317073170733,0.00043863859999999997
304.18,689.33,24178.0,4.136e-05,8.4509,11.302,42.752,40.873,73.774,914.09,-0.016769,148.41,0.14667,supercritical,CO2,C124389,carbon-dioxide,304.18,73.8,10.6,0.09433962264150944,1.0,9.340514905149053,0.00043841599999999996
304.18,691.79,24190.0,4.1339e-05,8.4452,11.305,42.728,40.877,73.742,915.28,-0.016852,148.66,0.14684,supercritical,CO2,C124389,carbon-dioxide,304.18,73.8,10.6,0.09433962264150944,1.0,9.373848238482385,0.00043819339999999994
304.18,694.25,24202.0,4.1319e-05,8.4396,11.308,42.705,40.882,73.711,916.48,-0.016934,148.9,0.147,supercritical,CO2,C124389,carbon-dioxide,304.18,73.8,10.6,0.09433962264150944,1.0,9.407181571815718,0.00043798139999999997
304.18,696.71,24214.0,4.1298e-05,8.4339,11.311,42.682,40.887,73.679,917.67,-0.017016,149.15,0.14717,supercritical,CO2,C124389,carbon-dioxide,304.18,73.8,10.6,0.09433962264150944,1.0,9.440514905149053,0.0004377588
304.18,699.17,24226.0,4.1278e-05,8.4283,11.314,42.658,40.892,73.648,918.85,-0.017097,149.39,0.14734,supercritical,CO2,C124389,carbon-dioxide,304.18,73.8,10.6,0.09433962264150944,1.0,9.473848238482384,0.0004375468
304.18,701.63,24238.0,4.1258e-05,8.4226,11.317,42.635,40.896,73.617,920.04,-0.017178,149.64,0.1475,supercritical,CO2,C124389,carbon-dioxide,304.18,73.8,10.6,0.09433962264150944,1.0,9.50718157181572,0.00043733479999999995
304.18,704.08,24250.0,4.1238e-05,8.417,11.32,42.612,40.901,73.586,921.22,-0.017258,149.88,0.14767,supercritical,CO2,C124389,carbon-dioxide,304.18,73.8,10.6,0.09433962264150944,1.0,9.54037940379404,0.00043712279999999997
304.18,706.54,24262.0,4.1218e-05,8.4114,11.324,42.589,40.906,73.556,922.4,-0.017337,150.12,0.14783,supercritical,CO2,C124389,carbon-dioxide,304.18,73.8,10.6,0.09433962264150944,1.0,9.573712737127371,0.00043691079999999994
304.18,709.0,24273.0,4.1197e-05,8.4059,11.327,42.566,40.911,73.525,923.57,-0.017416,150.37,0.148,supercritical,CO2,C124389,carbon-dioxide,304.18,73.8,10.6,0.09433962264150944,1.0,9.607046070460704,0.0004366882
304.18,711.46,24285.0,4.1178e-05,8.4003,11.33,42.543,40.916,73.495,924.75,-0.017495,150.61,0.14817,supercritical,CO2,C124389,carbon-dioxide,304.18,73.8,10.6,0.09433962264150944,1.0,9.64037940379404,0.00043648679999999993
304.18,713.92,24297.0,4.1158e-05,8.3948,11.333,42.52,40.92,73.465,925.92,-0.017573,150.85,0.14833,supercritical,CO2,C124389,carbon-dioxide,304.18,73.8,10.6,0.09433962264150944,1.0,9.67371273712737,0.0004362748
304.18,716.38,24308.0,4.1138e-05,8.3892,11.336,42.498,40.925,73.435,927.08,-0.017651,151.1,0.14849,supercritical,CO2,C124389,carbon-dioxide,304.18,73.8,10.6,0.09433962264150944,1.0,9.707046070460706,0.0004360628
304.18,718.83,24320.0,4.1118e-05,8.3837,11.339,42.475,40.93,73.406,928.25,-0.017728,151.34,0.14866,supercritical,CO2,C124389,carbon-dioxide,304.18,73.8,10.6,0.09433962264150944,1.0,9.740243902439026,0.0004358508
304.18,721.29,24332.0,4.1099e-05,8.3783,11.343,42.452,40.935,73.376,929.41,-0.017804,151.58,0.14882,supercritical,CO2,C124389,carbon-dioxide,304.18,73.8,10.6,0.09433962264150944,1.0,9.773577235772358,0.00043564939999999995
304.18,723.75,24343.0,4.1079e-05,8.3728,11.346,42.429,40.94,73.347,930.57,-0.01788,151.82,0.14899,supercritical,CO2,C124389,carbon-dioxide,304.18,73.8,10.6,0.09433962264150944,1.0,9.80691056910569,0.0004354373999999999
304.18,726.21,24355.0,4.106e-05,8.3673,11.349,42.407,40.944,73.318,931.72,-0.017956,152.07,0.14915,supercritical,CO2,C124389,carbon-dioxide,304.18,73.8,10.6,0.09433962264150944,1.0,9.840243902439026,0.000435236
304.18,728.67,24366.0,4.104e-05,8.3619,11.352,42.384,40.949,73.289,932.88,-0.018031,152.31,0.14931,supercritical,CO2,C124389,carbon-dioxide,304.18,73.8,10.6,0.09433962264150944,1.0,9.873577235772357,0.00043502399999999995
304.18,731.13,24378.0,4.1021e-05,8.3565,11.356,42.362,40.954,73.261,934.03,-0.018105,152.55,0.14948,supercritical,CO2,C124389,carbon-dioxide,304.18,73.8,10.6,0.09433962264150944,1.0,9.906910569105692,0.00043482259999999995
304.18,733.58,24389.0,4.1002e-05,8.3511,11.359,42.34,40.959,73.232,935.18,-0.01818,152.79,0.14964,supercritical,CO2,C124389,carbon-dioxide,304.18,73.8,10.6,0.09433962264150944,1.0,9.940108401084013,0.00043462119999999996
304.18,736.04,24401.0,4.0983e-05,8.3457,11.362,42.317,40.964,73.204,936.32,-0.018253,153.03,0.1498,supercritical,CO2,C124389,carbon-dioxide,304.18,73.8,10.6,0.09433962264150944,1.0,9.973441734417344,0.00043441979999999996
304.18,738.5,24412.0,4.0963e-05,8.3403,11.365,42.295,40.969,73.176,937.47,-0.018326,153.27,0.14996,supercritical,CO2,C124389,carbon-dioxide,304.18,73.8,10.6,0.09433962264150944,1.0,10.006775067750677,0.0004342078
304.18,740.96,24423.0,4.0944e-05,8.3349,11.369,42.273,40.973,73.148,938.61,-0.018399,153.51,0.15013,supercritical,CO2,C124389,carbon-dioxide,304.18,73.8,10.6,0.09433962264150944,1.0,10.040108401084012,0.00043400639999999994
304.18,743.42,24435.0,4.0925e-05,8.3296,11.372,42.25,40.978,73.12,939.74,-0.018471,153.75,0.15029,supercritical,CO2,C124389,carbon-dioxide,304.18,73.8,10.6,0.09433962264150944,1.0,10.073441734417344,0.00043380499999999994
304.18,745.88,24446.0,4.0907e-05,8.3243,11.375,42.228,40.983,73.093,940.88,-0.018543,154.0,0.15045,supercritical,CO2,C124389,carbon-dioxide,304.18,73.8,10.6,0.09433962264150944,1.0,10.106775067750679,0.0004336142
304.18,748.33,24457.0,4.0888e-05,8.319,11.379,42.206,40.988,73.065,942.01,-0.018615,154.24,0.15061,supercritical,CO2,C124389,carbon-dioxide,304.18,73.8,10.6,0.09433962264150944,1.0,10.139972899728999,0.00043341279999999994
304.18,750.79,24468.0,4.0869e-05,8.3137,11.382,42.184,40.993,73.038,943.14,-0.018686,154.48,0.15077,supercritical,CO2,C124389,carbon-dioxide,304.18,73.8,10.6,0.09433962264150944,1.0,10.17330623306233,0.00043321139999999994
304.18,753.25,24480.0,4.085e-05,8.3084,11.385,42.162,40.998,73.011,944.27,-0.018756,154.72,0.15093,supercritical,CO2,C124389,carbon-dioxide,304.18,73.8,10.6,0.09433962264150944,1.0,10.206639566395664,0.00043300999999999995
304.18,755.71,24491.0,4.0832e-05,8.3031,11.389,42.14,41.003,72.984,945.4,-0.018826,154.95,0.15109,supercritical,CO2,C124389,carbon-dioxide,304.18,73.8,10.6,0.09433962264150944,1.0,10.239972899728999,0.00043281919999999994
304.18,758.17,24502.0,4.0813e-05,8.2979,11.392,42.118,41.007,72.957,946.52,-0.018896,155.19,0.15125,supercritical,CO2,C124389,carbon-dioxide,304.18,73.8,10.6,0.09433962264150944,1.0,10.27330623306233,0.00043261779999999994
304.18,760.63,24513.0,4.0795e-05,8.2926,11.396,42.097,41.012,72.931,947.64,-0.018965,155.43,0.15141,supercritical,CO2,C124389,carbon-dioxide,304.18,73.8,10.6,0.09433962264150944,1.0,10.306639566395665,0.00043242699999999993
304.18,763.08,24524.0,4.0777e-05,8.2874,11.399,42.075,41.017,72.904,948.76,-0.019034,155.67,0.15157,supercritical,CO2,C124389,carbon-dioxide,304.18,73.8,10.6,0.09433962264150944,1.0,10.339837398373986,0.0004322362
304.18,765.54,24535.0,4.0758e-05,8.2822,11.402,42.053,41.022,72.878,949.87,-0.019102,155.91,0.15173,supercritical,CO2,C124389,carbon-dioxide,304.18,73.8,10.6,0.09433962264150944,1.0,10.373170731707317,0.0004320347999999999
304.18,768.0,24546.0,4.074e-05,8.277,11.406,42.031,41.027,72.852,950.98,-0.01917,156.15,0.15189,supercritical,CO2,C124389,carbon-dioxide,304.18,73.8,10.6,0.09433962264150944,1.0,10.40650406504065,0.00043184399999999997
304.18,770.46,24557.0,4.0722e-05,8.2718,11.409,42.01,41.032,72.826,952.09,-0.019238,156.39,0.15205,supercritical,CO2,C124389,carbon-dioxide,304.18,73.8,10.6,0.09433962264150944,1.0,10.439837398373985,0.00043165319999999996
304.18,772.92,24568.0,4.0704e-05,8.2667,11.413,41.988,41.037,72.8,953.2,-0.019305,156.63,0.15221,supercritical,CO2,C124389,carbon-dioxide,304.18,73.8,10.6,0.09433962264150944,1.0,10.473170731707317,0.0004314624
304.18,775.38,24579.0,4.0686e-05,8.2615,11.416,41.967,41.042,72.775,954.31,-0.019372,156.86,0.15237,supercritical,CO2,C124389,carbon-dioxide,304.18,73.8,10.6,0.09433962264150944,1.0,10.506504065040652,0.0004312716
304.18,777.83,24590.0,4.0668e-05,8.2564,11.42,41.945,41.046,72.749,955.41,-0.019438,157.1,0.15253,supercritical,CO2,C124389,carbon-dioxide,304.18,73.8,10.6,0.09433962264150944,1.0,10.539701897018972,0.0004310807999999999
304.18,780.29,24600.0,4.065e-05,8.2513,11.423,41.924,41.051,72.724,956.51,-0.019504,157.34,0.15269,supercritical,CO2,C124389,carbon-dioxide,304.18,73.8,10.6,0.09433962264150944,1.0,10.573035230352303,0.00043088999999999996
304.18,782.75,24611.0,4.0632e-05,8.2462,11.427,41.903,41.056,72.699,957.61,-0.01957,157.58,0.15284,supercritical,CO2,C124389,carbon-dioxide,304.18,73.8,10.6,0.09433962264150944,1.0,10.606368563685637,0.00043069919999999995
304.18,785.21,24622.0,4.0614e-05,8.2411,11.43,41.881,41.061,72.674,958.7,-0.019635,157.81,0.153,supercritical,CO2,C124389,carbon-dioxide,304.18,73.8,10.6,0.09433962264150944,1.0,10.639701897018972,0.0004305084
304.18,787.67,24633.0,4.0596e-05,8.236,11.434,41.86,41.066,72.649,959.8,-0.0197,158.05,0.15316,supercritical,CO2,C124389,carbon-dioxide,304.18,73.8,10.6,0.09433962264150944,1.0,10.673035230352303,0.0004303176
304.18,790.12,24643.0,4.0579e-05,8.2309,11.437,41.839,41.071,72.624,960.89,-0.019764,158.29,0.15332,supercritical,CO2,C124389,carbon-dioxide,304.18,73.8,10.6,0.09433962264150944,1.0,10.706233062330623,0.00043013739999999995
304.18,792.58,24654.0,4.0561e-05,8.2259,11.441,41.818,41.076,72.6,961.98,-0.019829,158.53,0.15347,supercritical,CO2,C124389,carbon-dioxide,304.18,73.8,10.6,0.09433962264150944,1.0,10.739566395663958,0.0004299466
304.18,795.04,24665.0,4.0544e-05,8.2209,11.444,41.796,41.081,72.576,963.06,-0.019892,158.76,0.15363,supercritical,CO2,C124389,carbon-dioxide,304.18,73.8,10.6,0.09433962264150944,1.0,10.77289972899729,0.0004297663999999999
304.18,797.5,24675.0,4.0526e-05,8.2158,11.448,41.775,41.086,72.551,964.15,-0.019956,159.0,0.15379,supercritical,CO2,C124389,carbon-dioxide,304.18,73.8,10.6,0.09433962264150944,1.0,10.806233062330623,0.00042957559999999995
304.18,799.96,24686.0,4.0509e-05,8.2108,11.451,41.754,41.091,72.527,965.23,-0.020018,159.24,0.15394,supercritical,CO2,C124389,carbon-dioxide,304.18,73.8,10.6,0.09433962264150944,1.0,10.839566395663958,0.0004293954
304.18,802.42,24697.0,4.0492e-05,8.2058,11.455,41.733,41.095,72.503,966.31,-0.020081,159.47,0.1541,supercritical,CO2,C124389,carbon-dioxide,304.18,73.8,10.6,0.09433962264150944,1.0,10.87289972899729,0.00042921519999999995
304.18,804.87,24707.0,4.0474e-05,8.2009,11.459,41.712,41.1,72.479,967.39,-0.020143,159.71,0.15426,supercritical,CO2,C124389,carbon-dioxide,304.18,73.8,10.6,0.09433962264150944,1.0,10.90609756097561,0.00042902439999999994
304.18,807.33,24718.0,4.0457e-05,8.1959,11.462,41.692,41.105,72.456,968.46,-0.020205,159.94,0.15441,supercritical,CO2,C124389,carbon-dioxide,304.18,73.8,10.6,0.09433962264150944,1.0,10.939430894308945,0.0004288442
304.18,809.79,24728.0,4.044e-05,8.1909,11.466,41.671,41.11,72.432,969.53,-0.020267,160.18,0.15457,supercritical,CO2,C124389,carbon-dioxide,304.18,73.8,10.6,0.09433962264150944,1.0,10.972764227642276,0.00042866399999999993
304.18,812.25,24739.0,4.0423e-05,8.186,11.469,41.65,41.115,72.409,970.6,-0.020328,160.41,0.15472,supercritical,CO2,C124389,carbon-dioxide,304.18,73.8,10.6,0.09433962264150944,1.0,11.00609756097561,0.0004284838
304.18,814.71,24749.0,4.0406e-05,8.1811,11.473,41.629,41.12,72.385,971.67,-0.020389,160.65,0.15488,supercritical,CO2,C124389,carbon-dioxide,304.18,73.8,10.6,0.09433962264150944,1.0,11.039430894308945,0.0004283036
304.18,817.17,24759.0,4.0389e-05,8.1762,11.477,41.608,41.125,72.362,972.74,-0.020449,160.88,0.15503,supercritical,CO2,C124389,carbon-dioxide,304.18,73.8,10.6,0.09433962264150944,1.0,11.072764227642276,0.0004281234
304.18,819.62,24770.0,4.0372e-05,8.1713,11.48,41.588,41.13,72.339,973.8,-0.020509,161.12,0.15519,supercritical,CO2,C124389,carbon-dioxide,304.18,73.8,10.6,0.09433962264150944,1.0,11.105962059620596,0.0004279432
304.18,822.08,24780.0,4.0355e-05,8.1664,11.484,41.567,41.135,72.316,974.86,-0.020569,161.35,0.15534,supercritical,CO2,C124389,carbon-dioxide,304.18,73.8,10.6,0.09433962264150944,1.0,11.139295392953931,0.000427763
304.18,824.54,24790.0,4.0338e-05,8.1615,11.488,41.547,41.14,72.294,975.92,-0.020628,161.59,0.1555,supercritical,CO2,C124389,carbon-dioxide,304.18,73.8,10.6,0.09433962264150944,1.0,11.172628726287263,0.0004275828
304.18,827.0,24801.0,4.0321e-05,8.1566,11.491,41.526,41.145,72.271,976.98,-0.020687,161.82,0.15565,supercritical,CO2,C124389,carbon-dioxide,304.18,73.8,10.6,0.09433962264150944,1.0,11.205962059620596,0.0004274026
304.18,829.46,24811.0,4.0305e-05,8.1518,11.495,41.506,41.15,72.249,978.04,-0.020746,162.06,0.15581,supercritical,CO2,C124389,carbon-dioxide,304.18,73.8,10.6,0.09433962264150944,1.0,11.239295392953931,0.000427233
304.18,831.92,24821.0,4.0288e-05,8.1469,11.499,41.485,41.155,72.226,979.09,-0.020805,162.29,0.15596,supercritical,CO2,C124389,carbon-dioxide,304.18,73.8,10.6,0.09433962264150944,1.0,11.272628726287262,0.0004270527999999999
304.18,834.37,24831.0,4.0272e-05,8.1421,11.502,41.465,41.16,72.204,980.14,-0.020863,162.53,0.15611,supercritical,CO2,C124389,carbon-dioxide,304.18,73.8,10.6,0.09433962264150944,1.0,11.305826558265583,0.0004268832
304.18,836.83,24842.0,4.0255e-05,8.1373,11.506,41.444,41.165,72.182,981.19,-0.02092,162.76,0.15627,supercritical,CO2,C124389,carbon-dioxide,304.18,73.8,10.6,0.09433962264150944,1.0,11.339159891598918,0.00042670299999999996
304.18,839.29,24852.0,4.0239e-05,8.1325,11.51,41.424,41.17,72.16,982.23,-0.020978,162.99,0.15642,supercritical,CO2,C124389,carbon-dioxide,304.18,73.8,10.6,0.09433962264150944,1.0,11.37249322493225,0.00042653339999999996
304.18,841.75,24862.0,4.0222e-05,8.1277,11.513,41.404,41.175,72.138,983.28,-0.021035,163.23,0.15657,supercritical,CO2,C124389,carbon-dioxide,304.18,73.8,10.6,0.09433962264150944,1.0,11.405826558265582,0.0004263532
304.18,844.21,24872.0,4.0206e-05,8.123,11.517,41.384,41.18,72.116,984.32,-0.021092,163.46,0.15672,supercritical,CO2,C124389,carbon-dioxide,304.18,73.8,10.6,0.09433962264150944,1.0,11.439159891598917,0.0004261836
304.18,846.67,24882.0,4.019e-05,8.1182,11.521,41.363,41.184,72.095,985.36,-0.021148,163.69,0.15688,supercritical,CO2,C124389,carbon-dioxide,304.18,73.8,10.6,0.09433962264150944,1.0,11.472493224932249,0.00042601399999999995
304.18,849.12,24892.0,4.0173e-05,8.1135,11.525,41.343,41.189,72.073,986.4,-0.021204,163.93,0.15703,supercritical,CO2,C124389,carbon-dioxide,304.18,73.8,10.6,0.09433962264150944,1.0,11.50569105691057,0.00042583380000000003
304.18,851.58,24902.0,4.0157e-05,8.1087,11.528,41.323,41.194,72.052,987.44,-0.02126,164.16,0.15718,supercritical,CO2,C124389,carbon-dioxide,304.18,73.8,10.6,0.09433962264150944,1.0,11.539024390243904,0.0004256642
304.18,854.04,24912.0,4.0141e-05,8.104,11.532,41.303,41.199,72.031,988.47,-0.021316,164.39,0.15733,supercritical,CO2,C124389,carbon-dioxide,304.18,73.8,10.6,0.09433962264150944,1.0,11.572357723577236,0.0004254946
304.18,856.5,24922.0,4.0125e-05,8.0993,11.536,41.283,41.204,72.01,989.5,-0.021371,164.62,0.15749,supercritical,CO2,C124389,carbon-dioxide,304.18,73.8,10.6,0.09433962264150944,1.0,11.605691056910569,0.00042532499999999994
304.18,858.96,24932.0,4.0109e-05,8.0946,11.54,41.263,41.209,71.989,990.53,-0.021426,164.86,0.15764,supercritical,CO2,C124389,carbon-dioxide,304.18,73.8,10.6,0.09433962264150944,1.0,11.639024390243904,0.00042515539999999995
304.18,861.42,24942.0,4.0093e-05,8.0899,11.544,41.243,41.214,71.968,991.56,-0.021481,165.09,0.15779,supercritical,CO2,C124389,carbon-dioxide,304.18,73.8,10.6,0.09433962264150944,1.0,11.672357723577235,0.00042498579999999996
304.18,863.87,24952.0,4.0077e-05,8.0852,11.547,41.223,41.219,71.947,992.59,-0.021535,165.32,0.15794,supercritical,CO2,C124389,carbon-dioxide,304.18,73.8,10.6,0.09433962264150944,1.0,11.705555555555556,0.0004248162
304.18,866.33,24962.0,4.0061e-05,8.0805,11.551,41.203,41.224,71.926,993.61,-0.021589,165.55,0.15809,supercritical,CO2,C124389,carbon-dioxide,304.18,73.8,10.6,0.09433962264150944,1.0,11.73888888888889,0.0004246466
304.18,868.79,24972.0,4.0045e-05,8.0759,11.555,41.184,41.229,71.906,994.63,-0.021643,165.79,0.15824,supercritical,CO2,C124389,carbon-dioxide,304.18,73.8,10.6,0.09433962264150944,1.0,11.772222222222222,0.000424477
304.18,871.25,24982.0,4.003e-05,8.0713,11.559,41.164,41.234,71.885,995.65,-0.021696,166.02,0.15839,supercritical,CO2,C124389,carbon-dioxide,304.18,73.8,10.6,0.09433962264150944,1.0,11.805555555555555,0.00042431799999999997
304.18,873.71,24991.0,4.0014e-05,8.0666,11.563,41.144,41.239,71.865,996.67,-0.02175,166.25,0.15854,supercritical,CO2,C124389,carbon-dioxide,304.18,73.8,10.6,0.09433962264150944,1.0,11.83888888888889,0.0004241484
304.18,876.17,25001.0,3.9998e-05,8.062,11.567,41.125,41.244,71.845,997.68,-0.021803,166.48,0.15869,supercritical,CO2,C124389,carbon-dioxide,304.18,73.8,10.6,0.09433962264150944,1.0,11.872222222222222,0.00042397879999999993
304.18,878.62,25011.0,3.9983e-05,8.0574,11.57,41.105,41.249,71.825,998.7,-0.021855,166.71,0.15884,supercritical,CO2,C124389,carbon-dioxide,304.18,73.8,10.6,0.09433962264150944,1.0,11.905420054200542,0.0004238198
304.18,881.08,25021.0,3.9967e-05,8.0528,11.574,41.085,41.254,71.805,999.71,-0.021908,166.94,0.15899,supercritical,CO2,C124389,carbon-dioxide,304.18,73.8,10.6,0.09433962264150944,1.0,11.938753387533877,0.00042365019999999993
304.18,883.54,25030.0,3.9951e-05,8.0482,11.578,41.066,41.259,71.785,1000.7,-0.02196,167.17,0.15914,supercritical,CO2,C124389,carbon-dioxide,304.18,73.8,10.6,0.09433962264150944,1.0,11.972086720867209,0.00042348059999999994
304.18,886.0,25040.0,3.9936e-05,8.0437,11.582,41.046,41.264,71.765,1001.7,-0.022011,167.4,0.15929,supercritical,CO2,C124389,carbon-dioxide,304.18,73.8,10.6,0.09433962264150944,1.0,12.005420054200542,0.00042332159999999993
304.18,888.46,25050.0,3.9921e-05,8.0391,11.586,41.027,41.269,71.745,1002.7,-0.022063,167.63,0.15944,supercritical,CO2,C124389,carbon-dioxide,304.18,73.8,10.6,0.09433962264150944,1.0,12.038753387533877,0.00042316259999999997
304.18,890.92,25059.0,3.9905e-05,8.0345,11.59,41.007,41.274,71.726,1003.7,-0.022114,167.87,0.15959,supercritical,CO2,C124389,carbon-dioxide,304.18,73.8,10.6,0.09433962264150944,1.0,12.072086720867208,0.0004229929999999999