Temperature (K),Pressure (bar),Density (mol/m3),Volume (m3/mol),Internal Energy (kJ/mol),Enthalpy (kJ/mol),Entropy (J/mol*K),Cv (J/mol*K),Cp (J/mol*K),Sound Spd. (m/s),Joule-Thomson (K/bar),Viscosity (uPa*s),Therm. Cond. (W/m*K),Phase,substance,substance_id,substance_name,Tc,Pc,rhoc,Vmc,Tr,Pr,Vmr
135.77,424.8,31831.0,3.1416e-05,-3.282,-1.9475,68.453,18.796,39.773,793.1,-0.040305,146.4,0.10534,liquid,Ar,C7440371,argon,150.86,48.9805,13.41,0.07457121551081282,0.9000000000000001,8.672839191106664,0.00042128856
135.77,426.43,31844.0,3.1403e-05,-3.284,-1.9449,68.434,18.802,39.753,793.89,-0.040386,146.63,0.10546,liquid,Ar,C7440371,argon,150.86,48.9805,13.41,0.07457121551081282,0.9000000000000001,8.706117740733557,0.00042111423
135.77,428.06,31858.0,3.1389e-05,-3.2859,-1.9422,68.416,18.808,39.733,794.67,-0.040465,146.87,0.10558,liquid,Ar,C7440371,argon,150.86,48.9805,13.41,0.07457121551081282,0.9000000000000001,8.73939629036045,0.00042092649000000006
135.77,429.69,31872.0,3.1376e-05,-3.2878,-1.9396,68.398,18.813,39.714,795.46,-0.040545,147.1,0.10569,liquid,Ar,C7440371,argon,150.86,48.9805,13.41,0.07457121551081282,0.9000000000000001,8.772674839987342,0.00042075216000000005
135.77,431.32,31885.0,3.1362e-05,-3.2897,-1.937,68.379,18.819,39.694,796.24,-0.040623,147.33,0.10581,liquid,Ar,C7440371,argon,150.86,48.9805,13.41,0.07457121551081282,0.9000000000000001,8.805953389614235,0.00042056442000000006
135.77,432.95,31899.0,3.1349e-05,-3.2916,-1.9344,68.361,18.824,39.675,797.02,-0.040702,147.56,0.10592,liquid,Ar,C7440371,argon,150.86,48.9805,13.41,0.07457121551081282,0.9000000000000001,8.839231939241126,0.00042039009000000005
135.77,434.58,31912.0,3.1336e-05,-3.2935,-1.9317,68.343,18.83,39.655,797.8,-0.04078,147.79,0.10604,liquid,Ar,C7440371,argon,150.86,48.9805,13.41,0.07457121551081282,0.9000000000000001,8.872510488868018,0.00042021576000000004
135.77,436.21,31926.0,3.1323e-05,-3.2954,-1.9291,68.325,18.835,39.636,798.57,-0.040857,148.02,0.10616,liquid,Ar,C7440371,argon,150.86,48.9805,13.41,0.07457121551081282,0.9000000000000001,8.90578903849491,0.00042004143000000003
135.77,437.84,31939.0,3.1309e-05,-3.2973,-1.9265,68.307,18.841,39.617,799.35,-0.040934,148.25,0.10627,liquid,Ar,C7440371,argon,150.86,48.9805,13.41,0.07457121551081282,0.9000000000000001,8.939067588121803,0.00041985369000000004
135.77,439.47,31953.0,3.1296e-05,-3.2992,-1.9238,68.288,18.847,39.598,800.12,-0.04101,148.48,0.10639,liquid,Ar,C7440371,argon,150.86,48.9805,13.41,0.07457121551081282,0.9000000000000001,8.972346137748696,0.00041967936000000003
135.77,441.1,31966.0,3.1283e-05,-3.3011,-1.9212,68.27,18.852,39.579,800.89,-0.041086,148.71,0.1065,liquid,Ar,C7440371,argon,150.86,48.9805,13.41,0.07457121551081282,0.9000000000000001,9.005624687375589,0.00041950503
135.77,442.73,31979.0,3.127e-05,-3.3029,-1.9185,68.252,18.858,39.56,801.66,-0.041162,148.94,0.10662,liquid,Ar,C7440371,argon,150.86,48.9805,13.41,0.07457121551081282,0.9000000000000001,9.038903237002481,0.0004193307
135.77,444.36,31993.0,3.1257e-05,-3.3048,-1.9159,68.234,18.863,39.542,802.42,-0.041237,149.17,0.10673,liquid,Ar,C7440371,argon,150.86,48.9805,13.41,0.07457121551081282,0.9000000000000001,9.072181786629374,0.00041915637000000005
135.77,445.99,32006.0,3.1244e-05,-3.3067,-1.9132,68.217,18.869,39.523,803.19,-0.041311,149.41,0.10685,liquid,Ar,C7440371,argon,150.86,48.9805,13.41,0.07457121551081282,0.9000000000000001,9.105460336256266,0.00041898204000000004
135.77,447.62,32019.0,3.1231e-05,-3.3085,-1.9105,68.199,18.874,39.505,803.95,-0.041385,149.64,0.10696,liquid,Ar,C7440371,argon,150.86,48.9805,13.41,0.07457121551081282,0.9000000000000001,9.138738885883157,0.00041880771
135.77,449.25,32032.0,3.1218e-05,-3.3104,-1.9079,68.181,18.88,39.486,804.71,-0.041459,149.87,0.10708,liquid,Ar,C7440371,argon,150.86,48.9805,13.41,0.07457121551081282,0.9000000000000001,9.17201743551005,0.00041863338
135.77,450.88,32046.0,3.1206e-05,-3.3122,-1.9052,68.163,18.885,39.468,805.47,-0.041532,150.1,0.10719,liquid,Ar,C7440371,argon,150.86,48.9805,13.41,0.07457121551081282,0.9000000000000001,9.205295985136942,0.00041847246000000003
135.77,452.51,32059.0,3.1193e-05,-3.314,-1.9025,68.145,18.891,39.45,806.23,-0.041605,150.33,0.1073,liquid,Ar,C7440371,argon,150.86,48.9805,13.41,0.07457121551081282,0.9000000000000001,9.238574534763835,0.00041829813
135.77,454.14,32072.0,3.118e-05,-3.3159,-1.8998,68.127,18.896,39.432,806.99,-0.041678,150.56,0.10742,liquid,Ar,C7440371,argon,150.86,48.9805,13.41,0.07457121551081282,0.9000000000000001,9.271853084390727,0.00041812380000000006
135.77,455.77,32085.0,3.1167e-05,-3.3177,-1.8972,68.11,18.902,39.414,807.74,-0.041749,150.79,0.10753,liquid,Ar,C7440371,argon,150.86,48.9805,13.41,0.07457121551081282,0.9000000000000001,9.305131634017618,0.00041794947000000005
135.77,457.4,32098.0,3.1155e-05,-3.3195,-1.8945,68.092,18.907,39.397,808.49,-0.041821,151.02,0.10764,liquid,Ar,C7440371,argon,150.86,48.9805,13.41,0.07457121551081282,0.9000000000000001,9.33841018364451,0.00041778855000000007
135.77,459.03,32111.0,3.1142e-05,-3.3213,-1.8918,68.075,18.913,39.379,809.24,-0.041892,151.25,0.10776,liquid,Ar,C7440371,argon,150.86,48.9805,13.41,0.07457121551081282,0.9000000000000001,9.371688733271403,0.00041761422000000006
135.77,460.66,32124.0,3.113e-05,-3.3231,-1.8891,68.057,18.918,39.362,809.99,-0.041963,151.47,0.10787,liquid,Ar,C7440371,argon,150.86,48.9805,13.41,0.07457121551081282,0.9000000000000001,9.404967282898298,0.0004174533000000001
135.77,462.29,32137.0,3.1117e-05,-3.3249,-1.8864,68.039,18.924,39.344,810.74,-0.042033,151.7,0.10798,liquid,Ar,C7440371,argon,150.86,48.9805,13.41,0.07457121551081282,0.9000000000000001,9.438245832525189,0.00041727897000000007
135.77,463.92,32150.0,3.1105e-05,-3.3267,-1.8837,68.022,18.929,39.327,811.49,-0.042103,151.93,0.10809,liquid,Ar,C7440371,argon,150.86,48.9805,13.41,0.07457121551081282,0.9000000000000001,9.471524382152081,0.00041711805000000003
135.77,465.55,32162.0,3.1092e-05,-3.3285,-1.881,68.005,18.935,39.31,812.23,-0.042172,152.16,0.10821,liquid,Ar,C7440371,argon,150.86,48.9805,13.41,0.07457121551081282,0.9000000000000001,9.504802931778974,0.00041694372
135.77,467.18,32175.0,3.108e-05,-3.3303,-1.8783,67.987,18.94,39.293,812.97,-0.042241,152.39,0.10832,liquid,Ar,C7440371,argon,150.86,48.9805,13.41,0.07457121551081282,0.9000000000000001,9.538081481405866,0.00041678280000000004
135.77,468.81,32188.0,3.1067e-05,-3.3321,-1.8756,67.97,18.946,39.276,813.71,-0.04231,152.62,0.10843,liquid,Ar,C7440371,argon,150.86,48.9805,13.41,0.07457121551081282,0.9000000000000001,9.571360031032759,0.00041660847
135.77,470.44,32201.0,3.1055e-05,-3.3338,-1.8729,67.952,18.951,39.259,814.45,-0.042378,152.85,0.10854,liquid,Ar,C7440371,argon,150.86,48.9805,13.41,0.07457121551081282,0.9000000000000001,9.60463858065965,0.00041644755000000004
135.77,472.07,32214.0,3.1043e-05,-3.3356,-1.8702,67.935,18.957,39.242,815.19,-0.042446,153.08,0.10865,liquid,Ar,C7440371,argon,150.86,48.9805,13.41,0.07457121551081282,0.9000000000000001,9.637917130286542,0.00041628663000000006
135.77,473.7,32226.0,3.1031e-05,-3.3374,-1.8675,67.918,18.962,39.225,815.93,-0.042514,153.31,0.10877,liquid,Ar,C7440371,argon,150.86,48.9805,13.41,0.07457121551081282,0.9000000000000001,9.671195679913435,0.0004161257100000001
135.77,475.33,32239.0,3.1018e-05,-3.3391,-1.8647,67.901,18.967,39.209,816.66,-0.042581,153.54,0.10888,liquid,Ar,C7440371,argon,150.86,48.9805,13.41,0.07457121551081282,0.9000000000000001,9.704474229540327,0.00041595138000000007
135.77,476.96,32252.0,3.1006e-05,-3.3409,-1.862,67.884,18.973,39.192,817.39,-0.042647,153.77,0.10899,liquid,Ar,C7440371,argon,150.86,48.9805,13.41,0.07457121551081282,0.9000000000000001,9.73775277916722,0.00041579046000000003
135.77,478.59,32264.0,3.0994e-05,-3.3426,-1.8593,67.866,18.978,39.176,818.12,-0.042714,154.0,0.1091,liquid,Ar,C7440371,argon,150.86,48.9805,13.41,0.07457121551081282,0.9000000000000001,9.77103132879411,0.00041562954000000005
135.77,480.22,32277.0,3.0982e-05,-3.3444,-1.8566,67.849,18.984,39.159,818.85,-0.04278,154.22,0.10921,liquid,Ar,C7440371,argon,150.86,48.9805,13.41,0.07457121551081282,0.9000000000000001,9.804309878421005,0.00041546862000000007
135.77,481.85,32289.0,3.097e-05,-3.3461,-1.8538,67.832,18.989,39.143,819.58,-0.042845,154.45,0.10932,liquid,Ar,C7440371,argon,150.86,48.9805,13.41,0.07457121551081282,0.9000000000000001,9.837588428047898,0.0004153077000000001
135.77,483.48,32302.0,3.0958e-05,-3.3479,-1.8511,67.815,18.995,39.127,820.31,-0.04291,154.68,0.10943,liquid,Ar,C7440371,argon,150.86,48.9805,13.41,0.07457121551081282,0.9000000000000001,9.870866977674789,0.00041514678
135.77,485.11,32314.0,3.0946e-05,-3.3496,-1.8484,67.798,19.0,39.111,821.03,-0.042975,154.91,0.10954,liquid,Ar,C7440371,argon,150.86,48.9805,13.41,0.07457121551081282,0.9000000000000001,9.904145527301681,0.00041498586
135.77,486.74,32327.0,3.0934e-05,-3.3513,-1.8456,67.781,19.005,39.095,821.76,-0.043039,155.14,0.10965,liquid,Ar,C7440371,argon,150.86,48.9805,13.41,0.07457121551081282,0.9000000000000001,9.937424076928574,0.00041482494000000004
135.77,488.37,32339.0,3.0922e-05,-3.353,-1.8429,67.764,19.011,39.079,822.48,-0.043104,155.37,0.10976,liquid,Ar,C7440371,argon,150.86,48.9805,13.41,0.07457121551081282,0.9000000000000001,9.970702626555466,0.00041466402000000005
135.77,490.0,32351.0,3.0911e-05,-3.3547,-1.8401,67.747,19.016,39.063,823.2,-0.043167,155.6,0.10987,liquid,Ar,C7440371,argon,150.86,48.9805,13.41,0.07457121551081282,0.9000000000000001,10.003981176182359,0.0004145165100000001
135.77,491.63,32364.0,3.0899e-05,-3.3564,-1.8374,67.731,19.022,39.048,823.92,-0.043231,155.82,0.10998,liquid,Ar,C7440371,argon,150.86,48.9805,13.41,0.07457121551081282,0.9000000000000001,10.037259725809252,0.00041435559
135.77,493.26,32376.0,3.0887e-05,-3.3581,-1.8346,67.714,19.027,39.032,824.63,-0.043294,156.05,0.11009,liquid,Ar,C7440371,argon,150.86,48.9805,13.41,0.07457121551081282,0.9000000000000001,10.070538275436142,0.00041419467000000003
135.77,494.89,32388.0,3.0875e-05,-3.3598,-1.8319,67.697,19.032,39.017,825.35,-0.043356,156.28,0.1102,liquid,Ar,C7440371,argon,150.86,48.9805,13.41,0.07457121551081282,0.9000000000000001,10.103816825063035,0.00041403375
135.77,496.52,32401.0,3.0864e-05,-3.3615,-1.8291,67.68,19.038,39.001,826.06,-0.043419,156.51,0.11031,liquid,Ar,C7440371,argon,150.86,48.9805,13.41,0.07457121551081282,0.9000000000000001,10.137095374689927,0.00041388624000000004
135.77,498.15,32413.0,3.0852e-05,-3.3632,-1.8263,67.664,19.043,38.986,826.77,-0.04348,156.74,0.11042,liquid,Ar,C7440371,argon,150.86,48.9805,13.41,0.07457121551081282,0.9000000000000001,10.17037392431682,0.00041372532000000006
135.77,499.78,32425.0,3.084e-05,-3.3649,-1.8236,67.647,19.048,38.971,827.48,-0.043542,156.96,0.11052,liquid,Ar,C7440371,argon,150.86,48.9805,13.41,0.07457121551081282,0.9000000000000001,10.203652473943713,0.0004135644000000001
135.77,501.41,32437.0,3.0829e-05,-3.3666,-1.8208,67.63,19.054,38.955,828.19,-0.043603,157.19,0.11063,liquid,Ar,C7440371,argon,150.86,48.9805,13.41,0.07457121551081282,0.9000000000000001,10.236931023570605,0.00041341689
135.77,503.04,32449.0,3.0817e-05,-3.3683,-1.818,67.614,19.059,38.94,828.9,-0.043664,157.42,0.11074,liquid,Ar,C7440371,argon,150.86,48.9805,13.41,0.07457121551081282,0.9000000000000001,10.270209573197498,0.00041325597000000004
135.77,504.67,32462.0,3.0806e-05,-3.3699,-1.8153,67.597,19.064,38.925,829.61,-0.043725,157.65,0.11085,liquid,Ar,C7440371,argon,150.86,48.9805,13.41,0.07457121551081282,0.9000000000000001,10.30348812282439,0.0004131084600000001
135.77,506.3,32474.0,3.0794e-05,-3.3716,-1.8125,67.581,19.07,38.91,830.31,-0.043785,157.88,0.11096,liquid,Ar,C7440371,argon,150.86,48.9805,13.41,0.07457121551081282,0.9000000000000001,10.336766672451281,0.00041294754
135.77,507.93,32486.0,3.0783e-05,-3.3733,-1.8097,67.564,19.075,38.896,831.02,-0.043845,158.1,0.11106,liquid,Ar,C7440371,argon,150.86,48.9805,13.41,0.07457121551081282,0.9000000000000001,10.370045222078174,0.00041280003000000005
135.77,509.56,32498.0,3.0771e-05,-3.3749,-1.8069,67.548,19.08,38.881,831.72,-0.043905,158.33,0.11117,liquid,Ar,C7440371,argon,150.86,48.9805,13.41,0.07457121551081282,0.9000000000000001,10.403323771705066,0.00041263911000000007
135.77,511.19,32510.0,3.076e-05,-3.3766,-1.8041,67.531,19.086,38.866,832.42,-0.043964,158.56,0.11128,liquid,Ar,C7440371,argon,150.86,48.9805,13.41,0.07457121551081282,0.9000000000000001,10.436602321331959,0.0004124916
135.77,512.82,32522.0,3.0749e-05,-3.3782,-1.8014,67.515,19.091,38.852,833.12,-0.044023,158.79,0.11139,liquid,Ar,C7440371,argon,150.86,48.9805,13.41,0.07457121551081282,0.9000000000000001,10.469880870958852,0.00041234409000000006
135.77,514.45,32534.0,3.0737e-05,-3.3799,-1.7986,67.498,19.096,38.837,833.81,-0.044081,159.01,0.11149,liquid,Ar,C7440371,argon,150.86,48.9805,13.41,0.07457121551081282,0.9000000000000001,10.503159420585744,0.0004121831700000001
135.77,516.08,32546.0,3.0726e-05,-3.3815,-1.7958,67.482,19.101,38.823,834.51,-0.04414,159.24,0.1116,liquid,Ar,C7440371,argon,150.86,48.9805,13.41,0.07457121551081282,0.9000000000000001,10.536437970212637,0.00041203566
135.77,517.71,32558.0,3.0715e-05,-3.3831,-1.793,67.466,19.107,38.808,835.21,-0.044198,159.47,0.11171,liquid,Ar,C7440371,argon,150.86,48.9805,13.41,0.07457121551081282,0.9000000000000001,10.56971651983953,0.00041188815000000006
135.77,519.34,32569.0,3.0704e-05,-3.3848,-1.7902,67.449,19.112,38.794,835.9,-0.044255,159.7,0.11181,liquid,Ar,C7440371,argon,150.86,48.9805,13.41,0.07457121551081282,0.9000000000000001,10.602995069466422,0.00041174064000000006
135.77,520.97,32581.0,3.0693e-05,-3.3864,-1.7874,67.433,19.117,38.78,836.59,-0.044313,159.92,0.11192,liquid,Ar,C7440371,argon,150.86,48.9805,13.41,0.07457121551081282,0.9000000000000001,10.636273619093313,0.00041159313000000005
135.77,522.6,32593.0,3.0681e-05,-3.388,-1.7846,67.417,19.123,38.766,837.28,-0.04437,160.15,0.11203,liquid,Ar,C7440371,argon,150.86,48.9805,13.41,0.07457121551081282,0.9000000000000001,10.669552168720205,0.00041143221
135.77,524.23,32605.0,3.067e-05,-3.3896,-1.7818,67.401,19.128,38.752,837.97,-0.044427,160.38,0.11213,liquid,Ar,C7440371,argon,150.86,48.9805,13.41,0.07457121551081282,0.9000000000000001,10.702830718347098,0.00041128470000000006
135.77,525.86,32617.0,3.0659e-05,-3.3912,-1.779,67.385,19.133,38.738,838.66,-0.044483,160.6,0.11224,liquid,Ar,C7440371,argon,150.86,48.9805,13.41,0.07457121551081282,0.9000000000000001,10.73610926797399,0.00041113719
135.77,527.49,32628.0,3.0648e-05,-3.3928,-1.7762,67.369,19.138,38.724,839.34,-0.044539,160.83,0.11234,liquid,Ar,C7440371,argon,150.86,48.9805,13.41,0.07457121551081282,0.9000000000000001,10.769387817600883,0.00041098968000000005
135.77,529.12,32640.0,3.0637e-05,-3.3944,-1.7734,67.353,19.144,38.71,840.03,-0.044595,161.06,0.11245,liquid,Ar,C7440371,argon,150.86,48.9805,13.41,0.07457121551081282,0.9000000000000001,10.802666367227774,0.00041084217
135.77,530.75,32652.0,3.0626e-05,-3.396,-1.7705,67.337,19.149,38.696,840.71,-0.044651,161.29,0.11256,liquid,Ar,C7440371,argon,150.86,48.9805,13.41,0.07457121551081282,0.9000000000000001,10.835944916854666,0.00041069466000000004
135.77,532.38,32663.0,3.0615e-05,-3.3976,-1.7677,67.321,19.154,38.683,841.4,-0.044706,161.51,0.11266,liquid,Ar,C7440371,argon,150.86,48.9805,13.41,0.07457121551081282,0.9000000000000001,10.869223466481559,0.00041054715
135.77,534.01,32675.0,3.0604e-05,-3.3992,-1.7649,67.305,19.159,38.669,842.08,-0.044761,161.74,0.11277,liquid,Ar,C7440371,argon,150.86,48.9805,13.41,0.07457121551081282,0.9000000000000001,10.902502016108452,0.00041039964000000003
135.77,535.64,32687.0,3.0594e-05,-3.4008,-1.7621,67.289,19.164,38.656,842.76,-0.044815,161.97,0.11287,liquid,Ar,C7440371,argon,150.86,48.9805,13.41,0.07457121551081282,0.9000000000000001,10.935780565735344,0.00041026554
135.77,537.27,32698.0,3.0583e-05,-3.4024,-1.7593,67.273,19.17,38.642,843.43,-0.04487,162.19,0.11298,liquid,Ar,C7440371,argon,150.86,48.9805,13.41,0.07457121551081282,0.9000000000000001,10.969059115362235,0.00041011803000000005
135.77,538.9,32710.0,3.0572e-05,-3.4039,-1.7564,67.257,19.175,38.629,844.11,-0.044924,162.42,0.11308,liquid,Ar,C7440371,argon,150.86,48.9805,13.41,0.07457121551081282,0.9000000000000001,11.002337664989128,0.00040997052
135.77,540.53,32721.0,3.0561e-05,-3.4055,-1.7536,67.241,19.18,38.616,844.79,-0.044978,162.65,0.11319,liquid,Ar,C7440371,argon,150.86,48.9805,13.41,0.07457121551081282,0.9000000000000001,11.03561621461602,0.00040982301000000004
135.77,542.16,32733.0,3.055e-05,-3.4071,-1.7508,67.225,19.185,38.602,845.46,-0.045031,162.87,0.11329,liquid,Ar,C7440371,argon,150.86,48.9805,13.41,0.07457121551081282,0.9000000000000001,11.068894764242913,0.0004096755
135.77,543.79,32744.0,3.054e-05,-3.4086,-1.7479,67.209,19.191,38.589,846.13,-0.045084,163.1,0.11339,liquid,Ar,C7440371,argon,150.86,48.9805,13.41,0.07457121551081282,0.9000000000000001,11.102173313869805,0.00040954140000000006
135.77,545.42,32756.0,3.0529e-05,-3.4102,-1.7451,67.194,19.196,38.576,846.81,-0.045137,163.33,0.1135,liquid,Ar,C7440371,argon,150.86,48.9805,13.41,0.07457121551081282,0.9000000000000001,11.135451863496696,0.00040939389
135.77,547.05,32767.0,3.0518e-05,-3.4118,-1.7422,67.178,19.201,38.563,847.48,-0.04519,163.55,0.1136,liquid,Ar,C7440371,argon,150.86,48.9805,13.41,0.07457121551081282,0.9000000000000001,11.168730413123589,0.00040924638000000004
135.77,548.68,32778.0,3.0508e-05,-3.4133,-1.7394,67.162,19.206,38.55,848.15,-0.045242,163.78,0.11371,liquid,Ar,C7440371,argon,150.86,48.9805,13.41,0.07457121551081282,0.9000000000000001,11.202008962750481,0.00040911228
135.77,550.31,32790.0,3.0497e-05,-3.4149,-1.7366,67.146,19.211,38.537,848.81,-0.045295,164.01,0.11381,liquid,Ar,C7440371,argon,150.86,48.9805,13.41,0.07457121551081282,0.9000000000000001,11.235287512377374,0.00040896477
135.77,551.94,32801.0,3.0487e-05,-3.4164,-1.7337,67.131,19.216,38.524,849.48,-0.045346,164.23,0.11391,liquid,Ar,C7440371,argon,150.86,48.9805,13.41,0.07457121551081282,0.9000000000000001,11.268566062004268,0.00040883067000000003
135.77,553.57,32812.0,3.0476e-05,-3.4179,-1.7309,67.115,19.222,38.512,850.14,-0.045398,164.46,0.11402,liquid,Ar,C7440371,argon,150.86,48.9805,13.41,0.07457121551081282,0.9000000000000001,11.30184461163116,0.00040868316000000003
135.77,555.2,32824.0,3.0466e-05,-3.4195,-1.728,67.1,19.227,38.499,850.81,-0.045449,164.69,0.11412,liquid,Ar,C7440371,argon,150.86,48.9805,13.41,0.07457121551081282,0.9000000000000001,11.335123161258053,0.00040854906000000005
135.77,556.83,32835.0,3.0455e-05,-3.421,-1.7252,67.084,19.232,38.486,851.47,-0.0455,164.91,0.11422,liquid,Ar,C7440371,argon,150.86,48.9805,13.41,0.07457121551081282,0.9000000000000001,11.368401710884944,0.00040840155000000005
135.77,558.46,32846.0,3.0445e-05,-3.4225,-1.7223,67.069,19.237,38.474,852.13,-0.045551,165.14,0.11433,liquid,Ar,C7440371,argon,150.86,48.9805,13.41,0.07457121551081282,0.9000000000000001,11.401680260511837,0.00040826745000000007
135.77,560.09,32858.0,3.0434e-05,-3.4241,-1.7195,67.053,19.242,38.461,852.79,-0.045602,165.37,0.11443,liquid,Ar,C7440371,argon,150.86,48.9805,13.41,0.07457121551081282,0.9000000000000001,11.43495881013873,0.00040811994000000007
135.77,561.72,32869.0,3.0424e-05,-3.4256,-1.7166,67.038,19.247,38.449,853.45,-0.045652,165.59,0.11453,liquid,Ar,C7440371,argon,150.86,48.9805,13.41,0.07457121551081282,0.9000000000000001,11.468237359765622,0.00040798584000000004
135.77,563.35,32880.0,3.0414e-05,-3.4271,-1.7137,67.022,19.252,38.437,854.11,-0.045702,165.82,0.11463,liquid,Ar,C7440371,argon,150.86,48.9805,13.41,0.07457121551081282,0.9000000000000001,11.501515909392515,0.00040785174000000006
135.77,564.98,32891.0,3.0403e-05,-3.4286,-1.7109,67.007,19.258,38.424,854.77,-0.045752,166.05,0.11474,liquid,Ar,C7440371,argon,150.86,48.9805,13.41,0.07457121551081282,0.9000000000000001,11.534794459019405,0.00040770423000000006