Temperature (K),Pressure (bar),Density (mol/m3),Volume (m3/mol),Internal Energy (kJ/mol),Enthalpy (kJ/mol),Entropy (J/mol*K),Cv (J/mol*K),Cp (J/mol*K),Sound Spd. (m/s),Joule-Thomson (K/bar),Viscosity (uPa*s),Therm. Cond. (W/m*K),Phase,substance,substance_id,substance_name,Tc,Pc,rhoc,Vmc,Tr,Pr,Vmr
365.02,1.0,33.033,0.030273,21.831,24.858,128.4,31.731,40.15,294.65,0.66185,18.052,0.021892,vapor,CO2,C124389,carbon-dioxide,304.18,73.8,10.6,0.09433962264150944,1.2,0.013550135501355014,0.3208938
365.02,3.4583,114.95,0.0086993,21.784,24.793,117.96,31.844,40.525,293.66,0.66147,18.085,0.022011,vapor,CO2,C124389,carbon-dioxide,304.18,73.8,10.6,0.09433962264150944,1.2,0.046860433604336046,0.09221257999999999
365.02,5.9167,197.91,0.0050529,21.737,24.726,113.36,31.958,40.912,292.68,0.66103,18.12,0.022134,vapor,CO2,C124389,carbon-dioxide,304.18,73.8,10.6,0.09433962264150944,1.2,0.0801720867208672,0.053560739999999996
365.02,8.375,281.92,0.0035471,21.689,24.66,110.34,32.074,41.311,291.69,0.66053,18.157,0.02226,vapor,CO2,C124389,carbon-dioxide,304.18,73.8,10.6,0.09433962264150944,1.2,0.11348238482384825,0.037599259999999995
365.02,10.833,367.03,0.0027245,21.641,24.592,108.07,32.191,41.722,290.71,0.65996,18.195,0.02239,vapor,CO2,C124389,carbon-dioxide,304.18,73.8,10.6,0.09433962264150944,1.2,0.14678861788617886,0.028879699999999998
365.02,13.292,453.26,0.0022062,21.592,24.524,106.23,32.309,42.146,289.74,0.65933,18.236,0.022525,vapor,CO2,C124389,carbon-dioxide,304.18,73.8,10.6,0.09433962264150944,1.2,0.18010840108401086,0.02338572
365.02,15.75,540.64,0.0018497,21.542,24.456,104.69,32.428,42.582,288.76,0.65862,18.278,0.022663,vapor,CO2,C124389,carbon-dioxide,304.18,73.8,10.6,0.09433962264150944,1.2,0.21341463414634146,0.019606819999999997
365.02,18.208,629.21,0.0015893,21.492,24.386,103.34,32.549,43.033,287.79,0.65784,18.322,0.022807,vapor,CO2,C124389,carbon-dioxide,304.18,73.8,10.6,0.09433962264150944,1.2,0.24672086720867206,0.01684658
365.02,20.667,718.98,0.0013909,21.442,24.316,102.15,32.671,43.498,286.83,0.65699,18.368,0.022954,vapor,CO2,C124389,carbon-dioxide,304.18,73.8,10.6,0.09433962264150944,1.2,0.2800406504065041,0.01474354
365.02,23.125,810.01,0.0012346,21.391,24.246,101.08,32.795,43.978,285.87,0.65605,18.416,0.023107,vapor,CO2,C124389,carbon-dioxide,304.18,73.8,10.6,0.09433962264150944,1.2,0.3133468834688347,0.01308676
365.02,25.583,902.32,0.0011083,21.339,24.174,100.09,32.919,44.473,284.91,0.65503,18.467,0.023265,vapor,CO2,C124389,carbon-dioxide,304.18,73.8,10.6,0.09433962264150944,1.2,0.3466531165311653,0.01174798
365.02,28.042,995.95,0.0010041,21.287,24.103,99.186,33.045,44.985,283.96,0.65393,18.519,0.023428,vapor,CO2,C124389,carbon-dioxide,304.18,73.8,10.6,0.09433962264150944,1.2,0.37997289972899734,0.010643459999999999
365.02,30.5,1090.9,0.00091664,21.234,24.03,98.341,33.173,45.513,283.01,0.65273,18.575,0.023596,vapor,CO2,C124389,carbon-dioxide,304.18,73.8,10.6,0.09433962264150944,1.2,0.41327913279132794,0.009716384
365.02,32.958,1187.3,0.00084222,21.181,23.956,97.549,33.302,46.059,282.07,0.65143,18.632,0.023771,vapor,CO2,C124389,carbon-dioxide,304.18,73.8,10.6,0.09433962264150944,1.2,0.44658536585365854,0.008927531999999998
365.02,35.417,1285.2,0.00077811,21.127,23.882,96.8,33.432,46.624,281.13,0.65004,18.693,0.023951,vapor,CO2,C124389,carbon-dioxide,304.18,73.8,10.6,0.09433962264150944,1.2,0.47990514905149056,0.008247966
365.02,37.875,1384.5,0.00072229,21.072,23.807,96.09,33.563,47.208,280.2,0.64854,18.756,0.024138,vapor,CO2,C124389,carbon-dioxide,304.18,73.8,10.6,0.09433962264150944,1.2,0.5132113821138211,0.007656273999999999
365.02,40.333,1485.3,0.00067326,21.016,23.732,95.414,33.696,47.812,279.28,0.64693,18.822,0.024332,vapor,CO2,C124389,carbon-dioxide,304.18,73.8,10.6,0.09433962264150944,1.2,0.5465176151761517,0.007136555999999999
365.02,42.792,1587.7,0.00062983,20.96,23.655,94.766,33.83,48.437,278.37,0.64521,18.891,0.024532,vapor,CO2,C124389,carbon-dioxide,304.18,73.8,10.6,0.09433962264150944,1.2,0.5798373983739837,0.006676197999999999
365.02,45.25,1691.8,0.0005911,20.903,23.578,94.143,33.965,49.084,277.46,0.64336,18.964,0.02474,vapor,CO2,C124389,carbon-dioxide,304.18,73.8,10.6,0.09433962264150944,1.2,0.6131436314363143,0.006265659999999999
365.02,47.708,1797.5,0.00055634,20.846,23.5,93.543,34.102,49.754,276.57,0.64139,19.039,0.024956,vapor,CO2,C124389,carbon-dioxide,304.18,73.8,10.6,0.09433962264150944,1.2,0.6464498644986449,0.005897204
365.02,50.167,1904.9,0.00052497,20.788,23.421,92.963,34.24,50.448,275.68,0.6393,19.119,0.025179,vapor,CO2,C124389,carbon-dioxide,304.18,73.8,10.6,0.09433962264150944,1.2,0.679769647696477,0.005564682
365.02,52.625,2014.1,0.00049651,20.729,23.342,92.401,34.379,51.167,274.81,0.63706,19.202,0.025411,vapor,CO2,C124389,carbon-dioxide,304.18,73.8,10.6,0.09433962264150944,1.2,0.7130758807588076,0.005263006
365.02,55.083,2125.1,0.00047058,20.669,23.261,91.855,34.52,51.911,273.94,0.63469,19.289,0.025652,vapor,CO2,C124389,carbon-dioxide,304.18,73.8,10.6,0.09433962264150944,1.2,0.7463821138211382,0.0049881479999999995
365.02,57.542,2237.9,0.00044684,20.608,23.18,91.323,34.661,52.683,273.09,0.63217,19.379,0.025902,vapor,CO2,C124389,carbon-dioxide,304.18,73.8,10.6,0.09433962264150944,1.2,0.7797018970189702,0.004736504
365.02,60.0,2352.8,0.00042503,20.547,23.097,90.804,34.804,53.483,272.26,0.62949,19.475,0.026161,vapor,CO2,C124389,carbon-dioxide,304.18,73.8,10.6,0.09433962264150944,1.2,0.8130081300813008,0.0045053179999999995
365.02,62.458,2469.6,0.00040493,20.485,23.014,90.296,34.949,54.312,271.44,0.62666,19.574,0.026431,vapor,CO2,C124389,carbon-dioxide,304.18,73.8,10.6,0.09433962264150944,1.2,0.8463143631436314,0.004292258
365.02,64.917,2588.4,0.00038634,20.422,22.93,89.8,35.094,55.172,270.63,0.62366,19.679,0.026711,vapor,CO2,C124389,carbon-dioxide,304.18,73.8,10.6,0.09433962264150944,1.2,0.8796341463414634,0.004095204
365.02,67.375,2709.4,0.00036909,20.358,22.845,89.312,35.24,56.064,269.85,0.62049,19.788,0.027003,vapor,CO2,C124389,carbon-dioxide,304.18,73.8,10.6,0.09433962264150944,1.2,0.912940379403794,0.003912354
365.02,69.833,2832.5,0.00035304,20.293,22.759,88.834,35.388,56.989,269.08,0.61714,19.903,0.027305,vapor,CO2,C124389,carbon-dioxide,304.18,73.8,10.6,0.09433962264150944,1.2,0.9462466124661246,0.0037422239999999997
365.02,72.292,2957.9,0.00033808,20.228,22.672,88.363,35.536,57.947,268.33,0.61361,20.023,0.02762,vapor,CO2,C124389,carbon-dioxide,304.18,73.8,10.6,0.09433962264150944,1.2,0.9795663956639566,0.0035836479999999996
365.02,74.75,3085.6,0.00032409,20.161,22.584,87.899,35.686,58.942,267.61,0.60989,20.149,0.027948,vapor,CO2,C124389,carbon-dioxide,304.18,73.8,10.6,0.09433962264150944,1.2,1.0128726287262872,0.003435354
365.02,74.75,3085.6,0.00032409,20.161,22.584,87.899,35.686,58.942,267.61,0.60989,20.149,0.027948,supercritical,CO2,C124389,carbon-dioxide,304.18,73.8,10.6,0.09433962264150944,1.2,1.0128726287262872,0.003435354
365.02,77.208,3215.6,0.00031099,20.094,22.495,87.442,35.836,59.973,266.91,0.60597,20.281,0.028289,supercritical,CO2,C124389,carbon-dioxide,304.18,73.8,10.6,0.09433962264150944,1.2,1.0461788617886179,0.0032964939999999996
365.02,79.667,3348.0,0.00029868,20.026,22.405,86.99,35.987,61.042,266.24,0.60185,20.419,0.028643,supercritical,CO2,C124389,carbon-dioxide,304.18,73.8,10.6,0.09433962264150944,1.2,1.0794986449864499,0.0031660079999999997
365.02,82.125,3482.9,0.00028711,19.957,22.314,86.544,36.138,62.15,265.59,0.59753,20.564,0.029012,supercritical,CO2,C124389,carbon-dioxide,304.18,73.8,10.6,0.09433962264150944,1.2,1.1128048780487805,0.0030433659999999996
365.02,84.583,3620.4,0.00027621,19.886,22.223,86.103,36.291,63.298,264.98,0.59299,20.716,0.029395,supercritical,CO2,C124389,carbon-dioxide,304.18,73.8,10.6,0.09433962264150944,1.2,1.146111111111111,0.0029278259999999997
365.02,87.042,3760.5,0.00026592,19.815,22.13,85.667,36.443,64.488,264.4,0.58823,20.876,0.029793,supercritical,CO2,C124389,carbon-dioxide,304.18,73.8,10.6,0.09433962264150944,1.2,1.179430894308943,0.002818752
365.02,89.5,3903.2,0.0002562,19.743,22.036,85.234,36.596,65.719,263.85,0.58324,21.043,0.030208,supercritical,CO2,C124389,carbon-dioxide,304.18,73.8,10.6,0.09433962264150944,1.2,1.2127371273712737,0.0027157199999999996
365.02,91.958,4048.7,0.00024699,19.67,21.941,84.805,36.749,66.992,263.35,0.57803,21.219,0.030638,supercritical,CO2,C124389,carbon-dioxide,304.18,73.8,10.6,0.09433962264150944,1.2,1.2460433604336043,0.0026180939999999996
365.02,94.417,4196.9,0.00023827,19.596,21.846,84.38,36.902,68.309,262.88,0.57259,21.403,0.031085,supercritical,CO2,C124389,carbon-dioxide,304.18,73.8,10.6,0.09433962264150944,1.2,1.2793631436314363,0.0025256619999999997
365.02,96.875,4347.9,0.00022999,19.521,21.749,83.957,37.055,69.67,262.46,0.56691,21.596,0.03155,supercritical,CO2,C124389,carbon-dioxide,304.18,73.8,10.6,0.09433962264150944,1.2,1.312669376693767,0.002437894
365.02,99.333,4501.8,0.00022213,19.445,21.652,83.538,37.207,71.074,262.08,0.56099,21.799,0.032032,supercritical,CO2,C124389,carbon-dioxide,304.18,73.8,10.6,0.09433962264150944,1.2,1.3459756097560975,0.0023545779999999995
365.02,101.79,4658.6,0.00021465,19.368,21.553,83.121,37.359,72.52,261.75,0.55483,22.011,0.032531,supercritical,CO2,C124389,carbon-dioxide,304.18,73.8,10.6,0.09433962264150944,1.2,1.379268292682927,0.00227529
365.02,104.25,4818.4,0.00020754,19.29,21.454,82.707,37.509,74.009,261.48,0.54842,22.234,0.033048,supercritical,CO2,C124389,carbon-dioxide,304.18,73.8,10.6,0.09433962264150944,1.2,1.4126016260162602,0.002199924
365.02,106.71,4981.0,0.00020076,19.211,21.354,82.295,37.659,75.539,261.27,0.54177,22.467,0.033584,supercritical,CO2,C124389,carbon-dioxide,304.18,73.8,10.6,0.09433962264150944,1.2,1.4459349593495934,0.0021280559999999997
365.02,109.17,5146.7,0.0001943,19.132,21.253,81.885,37.807,77.109,261.11,0.53487,22.712,0.034137,supercritical,CO2,C124389,carbon-dioxide,304.18,73.8,10.6,0.09433962264150944,1.2,1.4792682926829268,0.00205958
365.02,111.63,5315.2,0.00018814,19.051,21.151,81.477,37.953,78.715,261.03,0.52773,22.969,0.034709,supercritical,CO2,C124389,carbon-dioxide,304.18,73.8,10.6,0.09433962264150944,1.2,1.5126016260162602,0.001994284
365.02,114.08,5486.7,0.00018226,18.969,21.048,81.072,38.097,80.355,261.01,0.52034,23.237,0.035298,supercritical,CO2,C124389,carbon-dioxide,304.18,73.8,10.6,0.09433962264150944,1.2,1.54579945799458,0.0019319559999999999
365.02,116.54,5661.1,0.00017664,18.887,20.945,80.669,38.239,82.025,261.06,0.51272,23.518,0.035904,supercritical,CO2,C124389,carbon-dioxide,304.18,73.8,10.6,0.09433962264150944,1.2,1.5791327913279134,0.0018723839999999997
365.02,119.0,5838.3,0.00017128,18.803,20.842,80.268,38.378,83.72,261.2,0.50486,23.813,0.036528,supercritical,CO2,C124389,carbon-dioxide,304.18,73.8,10.6,0.09433962264150944,1.2,1.6124661246612466,0.0018155679999999998
365.02,121.46,6018.3,0.00016616,18.719,20.738,79.869,38.514,85.435,261.41,0.49678,24.12,0.037167,supercritical,CO2,C124389,carbon-dioxide,304.18,73.8,10.6,0.09433962264150944,1.2,1.6457994579945798,0.0017612959999999999
365.02,123.92,6200.9,0.00016127,18.635,20.633,79.472,38.646,87.163,261.71,0.48847,24.441,0.037822,supercritical,CO2,C124389,carbon-dioxide,304.18,73.8,10.6,0.09433962264150944,1.2,1.6791327913279133,0.001709462
365.02,126.38,6386.1,0.00015659,18.549,20.528,79.078,38.774,88.898,262.11,0.47996,24.777,0.038491,supercritical,CO2,C124389,carbon-dioxide,304.18,73.8,10.6,0.09433962264150944,1.2,1.7124661246612467,0.0016598539999999997
365.02,128.83,6573.7,0.00015212,18.463,20.423,78.687,38.897,90.63,262.6,0.47124,25.126,0.039173,supercritical,CO2,C124389,carbon-dioxide,304.18,73.8,10.6,0.09433962264150944,1.2,1.7456639566395666,0.001612472
365.02,131.29,6763.5,0.00014785,18.377,20.318,78.298,39.016,92.35,263.19,0.46234,25.49,0.039866,supercritical,CO2,C124389,carbon-dioxide,304.18,73.8,10.6,0.09433962264150944,1.2,1.7789972899728996,0.0015672099999999999
365.02,133.75,6955.4,0.00014377,18.29,20.213,77.912,39.13,94.05,263.89,0.45327,25.869,0.04057,supercritical,CO2,C124389,carbon-dioxide,304.18,73.8,10.6,0.09433962264150944,1.2,1.812330623306233,0.0015239619999999998
365.02,136.21,7149.0,0.00013988,18.203,20.109,77.53,39.238,95.719,264.69,0.44405,26.262,0.041283,supercritical,CO2,C124389,carbon-dioxide,304.18,73.8,10.6,0.09433962264150944,1.2,1.8456639566395665,0.0014827279999999998
365.02,138.67,7344.3,0.00013616,18.116,20.004,77.152,39.341,97.346,265.61,0.4347,26.669,0.042003,supercritical,CO2,C124389,carbon-dioxide,304.18,73.8,10.6,0.09433962264150944,1.2,1.8789972899728997,0.001443296
365.02,141.13,7540.8,0.00013261,18.029,19.901,76.777,39.437,98.92,266.64,0.42523,27.091,0.042728,supercritical,CO2,C124389,carbon-dioxide,304.18,73.8,10.6,0.09433962264150944,1.2,1.9123306233062332,0.0014056659999999999
365.02,143.58,7738.3,0.00012923,17.942,19.798,76.406,39.528,100.43,267.79,0.41568,27.527,0.043456,supercritical,CO2,C124389,carbon-dioxide,304.18,73.8,10.6,0.09433962264150944,1.2,1.945528455284553,0.001369838
365.02,146.04,7936.5,0.000126,17.855,19.696,76.041,39.612,101.87,269.06,0.40606,27.977,0.044187,supercritical,CO2,C124389,carbon-dioxide,304.18,73.8,10.6,0.09433962264150944,1.2,1.978861788617886,0.0013356
365.02,148.5,8135.1,0.00012292,17.769,19.594,75.68,39.689,103.22,270.44,0.39641,28.44,0.044917,supercritical,CO2,C124389,carbon-dioxide,304.18,73.8,10.6,0.09433962264150944,1.2,2.0121951219512195,0.0013029519999999998
365.02,150.96,8333.7,0.00012,17.683,19.494,75.324,39.76,104.49,271.95,0.38675,28.915,0.045647,supercritical,CO2,C124389,carbon-dioxide,304.18,73.8,10.6,0.09433962264150944,1.2,2.045528455284553,0.001272
365.02,153.42,8531.9,0.00011721,17.598,19.396,74.974,39.824,105.65,273.58,0.3771,29.402,0.046373,supercritical,CO2,C124389,carbon-dioxide,304.18,73.8,10.6,0.09433962264150944,1.2,2.078861788617886,0.0012424259999999998
365.02,155.88,8729.6,0.00011455,17.513,19.299,74.63,39.882,106.72,275.32,0.36749,29.901,0.047095,supercritical,CO2,C124389,carbon-dioxide,304.18,73.8,10.6,0.09433962264150944,1.2,2.1121951219512196,0.00121423
365.02,158.33,8926.2,0.00011203,17.429,19.203,74.291,39.934,107.67,277.18,0.35795,30.409,0.047811,supercritical,CO2,C124389,carbon-dioxide,304.18,73.8,10.6,0.09433962264150944,1.2,2.1453929539295395,0.0011875179999999998
365.02,160.79,9121.5,0.00010963,17.346,19.109,73.96,39.979,108.51,279.16,0.34849,30.927,0.048521,supercritical,CO2,C124389,carbon-dioxide,304.18,73.8,10.6,0.09433962264150944,1.2,2.1787262872628728,0.001162078
365.02,163.25,9315.2,0.00010735,17.265,19.017,73.634,40.019,109.24,281.25,0.33914,31.454,0.049223,supercritical,CO2,C124389,carbon-dioxide,304.18,73.8,10.6,0.09433962264150944,1.2,2.212059620596206,0.0011379099999999998
365.02,165.71,9506.9,0.00010519,17.184,18.927,73.316,40.053,109.86,283.44,0.32993,31.988,0.049917,supercritical,CO2,C124389,carbon-dioxide,304.18,73.8,10.6,0.09433962264150944,1.2,2.2453929539295396,0.001115014
365.02,168.17,9696.5,0.00010313,17.105,18.839,73.005,40.083,110.36,285.73,0.32086,32.528,0.050602,supercritical,CO2,C124389,carbon-dioxide,304.18,73.8,10.6,0.09433962264150944,1.2,2.2787262872628724,0.001093178
365.02,170.63,9883.6,0.00010118,17.027,18.753,72.7,40.107,110.76,288.13,0.31196,33.074,0.051278,supercritical,CO2,C124389,carbon-dioxide,304.18,73.8,10.6,0.09433962264150944,1.2,2.312059620596206,0.001072508
365.02,173.08,10068.0,9.9324e-05,16.95,18.669,72.403,40.127,111.05,290.61,0.30324,33.624,0.051943,supercritical,CO2,C124389,carbon-dioxide,304.18,73.8,10.6,0.09433962264150944,1.2,2.345257452574526,0.0010528344
365.02,175.54,10250.0,9.7565e-05,16.875,18.587,72.113,40.143,111.24,293.18,0.29471,34.178,0.052599,supercritical,CO2,C124389,carbon-dioxide,304.18,73.8,10.6,0.09433962264150944,1.2,2.378590785907859,0.001034189
365.02,178.0,10428.0,9.5894e-05,16.801,18.508,71.83,40.156,111.34,295.83,0.28637,34.734,0.053245,supercritical,CO2,C124389,carbon-dioxide,304.18,73.8,10.6,0.09433962264150944,1.2,2.4119241192411924,0.0010164764
365.02,180.46,10604.0,9.4308e-05,16.729,18.431,71.554,40.165,111.36,298.56,0.27825,35.292,0.053881,supercritical,CO2,C124389,carbon-dioxide,304.18,73.8,10.6,0.09433962264150944,1.2,2.445257452574526,0.0009996648
365.02,182.92,10776.0,9.2802e-05,16.658,18.356,71.285,40.171,111.29,301.35,0.27035,35.85,0.054507,supercritical,CO2,C124389,carbon-dioxide,304.18,73.8,10.6,0.09433962264150944,1.2,2.478590785907859,0.0009837011999999999
365.02,185.38,10944.0,9.1371e-05,16.589,18.283,71.024,40.174,111.15,304.21,0.26266,36.409,0.055123,supercritical,CO2,C124389,carbon-dioxide,304.18,73.8,10.6,0.09433962264150944,1.2,2.5119241192411925,0.0009685326
365.02,187.83,11110.0,9.0012e-05,16.521,18.212,70.769,40.175,110.94,307.12,0.2552,36.967,0.055729,supercritical,CO2,C124389,carbon-dioxide,304.18,73.8,10.6,0.09433962264150944,1.2,2.5451219512195125,0.0009541272
365.02,190.29,11271.0,8.872e-05,16.455,18.143,70.521,40.174,110.68,310.09,0.24796,37.523,0.056325,supercritical,CO2,C124389,carbon-dioxide,304.18,73.8,10.6,0.09433962264150944,1.2,2.5784552845528457,0.0009404319999999999
365.02,192.75,11430.0,8.7491e-05,16.391,18.077,70.28,40.171,110.37,313.1,0.24094,38.078,0.056912,supercritical,CO2,C124389,carbon-dioxide,304.18,73.8,10.6,0.09433962264150944,1.2,2.611788617886179,0.0009274046
365.02,195.21,11585.0,8.6322e-05,16.328,18.013,70.045,40.166,110.0,316.15,0.23415,38.63,0.05749,supercritical,CO2,C124389,carbon-dioxide,304.18,73.8,10.6,0.09433962264150944,1.2,2.6451219512195125,0.0009150132
365.02,197.67,11736.0,8.5209e-05,16.266,17.95,69.817,40.16,109.61,319.24,0.22758,39.179,0.058058,supercritical,CO2,C124389,carbon-dioxide,304.18,73.8,10.6,0.09433962264150944,1.2,2.6784552845528453,0.0009032154
365.02,200.12,11884.0,8.4149e-05,16.206,17.89,69.594,40.153,109.17,322.35,0.22123,39.724,0.058618,supercritical,CO2,C124389,carbon-dioxide,304.18,73.8,10.6,0.09433962264150944,1.2,2.7116531165311657,0.0008919793999999999
365.02,202.58,12028.0,8.3138e-05,16.147,17.832,69.378,40.145,108.71,325.5,0.21509,40.266,0.059169,supercritical,CO2,C124389,carbon-dioxide,304.18,73.8,10.6,0.09433962264150944,1.2,2.744986449864499,0.0008812628
365.02,205.04,12169.0,8.2174e-05,16.09,17.775,69.167,40.135,108.23,328.67,0.20916,40.803,0.059712,supercritical,CO2,C124389,carbon-dioxide,304.18,73.8,10.6,0.09433962264150944,1.2,2.778319783197832,0.0008710444
365.02,207.5,12307.0,8.1254e-05,16.034,17.72,68.962,40.126,107.73,331.85,0.20344,41.337,0.060247,supercritical,CO2,C124389,carbon-dioxide,304.18,73.8,10.6,0.09433962264150944,1.2,2.8116531165311653,0.0008612924
365.02,209.96,12442.0,8.0375e-05,15.98,17.667,68.763,40.115,107.21,335.05,0.19791,41.865,0.060774,supercritical,CO2,C124389,carbon-dioxide,304.18,73.8,10.6,0.09433962264150944,1.2,2.844986449864499,0.0008519749999999999
365.02,212.42,12573.0,7.9535e-05,15.926,17.616,68.568,40.104,106.69,338.27,0.19257,42.389,0.061294,supercritical,CO2,C124389,carbon-dioxide,304.18,73.8,10.6,0.09433962264150944,1.2,2.8783197831978318,0.0008430709999999999
365.02,214.87,12701.0,7.8731e-05,15.874,17.566,68.379,40.093,106.15,341.49,0.18742,42.908,0.061806,supercritical,CO2,C124389,carbon-dioxide,304.18,73.8,10.6,0.09433962264150944,1.2,2.911517615176152,0.0008345485999999999
365.02,217.33,12827.0,7.7962e-05,15.824,17.518,68.194,40.081,105.61,344.72,0.18245,43.422,0.06231,supercritical,CO2,C124389,carbon-dioxide,304.18,73.8,10.6,0.09433962264150944,1.2,2.9448509485094854,0.0008263971999999999
365.02,219.79,12949.0,7.7225e-05,15.774,17.471,68.014,40.07,105.06,347.95,0.17765,43.931,0.062808,supercritical,CO2,C124389,carbon-dioxide,304.18,73.8,10.6,0.09433962264150944,1.2,2.9781842818428186,0.0008185849999999998
365.02,222.25,13069.0,7.6519e-05,15.726,17.426,67.838,40.058,104.52,351.18,0.17301,44.434,0.063298,supercritical,CO2,C124389,carbon-dioxide,304.18,73.8,10.6,0.09433962264150944,1.2,3.011517615176152,0.0008111014