Temperature (K),Pressure (bar),Density (mol/m3),Volume (m3/mol),Internal Energy (kJ/mol),Enthalpy (kJ/mol),Entropy (J/mol*K),Cv (J/mol*K),Cp (J/mol*K),Sound Spd. (m/s),Joule-Thomson (K/bar),Viscosity (uPa*s),Therm. Cond. (W/m*K),Phase,substance,substance_id,substance_name,Tc,Pc,rhoc,Vmc,Tr,Pr,Vmr
181.03,594.32,28637.0,3.492e-05,-2.0269,0.04849,77.594,17.197,37.251,732.3,-0.036946,102.84,0.085927,supercritical,Ar,C7440371,argon,150.86,48.9805,13.41,0.07457121551081282,1.2,12.133808352303468,0.00046827720000000003
181.03,595.95,28653.0,3.49e-05,-2.0291,0.050736,77.575,17.202,37.234,733.09,-0.037056,102.99,0.086036,supercritical,Ar,C7440371,argon,150.86,48.9805,13.41,0.07457121551081282,1.2,12.167086901930361,0.0004680090000000001
181.03,597.58,28669.0,3.488e-05,-2.0314,0.052988,77.556,17.206,37.216,733.88,-0.037165,103.15,0.086145,supercritical,Ar,C7440371,argon,150.86,48.9805,13.41,0.07457121551081282,1.2,12.200365451557253,0.0004677408
181.03,599.21,28686.0,3.486e-05,-2.0336,0.055245,77.537,17.211,37.199,734.67,-0.037274,103.3,0.086254,supercritical,Ar,C7440371,argon,150.86,48.9805,13.41,0.07457121551081282,1.2,12.233644001184146,0.00046747260000000007
181.03,600.84,28702.0,3.4841e-05,-2.0359,0.057508,77.518,17.216,37.182,735.46,-0.037382,103.45,0.086363,supercritical,Ar,C7440371,argon,150.86,48.9805,13.41,0.07457121551081282,1.2,12.266922550811039,0.00046721781000000004
181.03,602.47,28718.0,3.4821e-05,-2.0381,0.059777,77.499,17.22,37.164,736.24,-0.037489,103.61,0.086471,supercritical,Ar,C7440371,argon,150.86,48.9805,13.41,0.07457121551081282,1.2,12.30020110043793,0.00046694961000000003
181.03,604.1,28735.0,3.4801e-05,-2.0403,0.06205,77.48,17.225,37.147,737.03,-0.037596,103.76,0.08658,supercritical,Ar,C7440371,argon,150.86,48.9805,13.41,0.07457121551081282,1.2,12.333479650064822,0.0004666814100000001
181.03,605.73,28751.0,3.4782e-05,-2.0425,0.064329,77.462,17.23,37.13,737.81,-0.037702,103.91,0.086688,supercritical,Ar,C7440371,argon,150.86,48.9805,13.41,0.07457121551081282,1.2,12.366758199691715,0.00046642662000000005
181.03,607.36,28767.0,3.4762e-05,-2.0447,0.066614,77.443,17.234,37.114,738.59,-0.037808,104.07,0.086796,supercritical,Ar,C7440371,argon,150.86,48.9805,13.41,0.07457121551081282,1.2,12.400036749318607,0.00046615842
181.03,608.99,28783.0,3.4743e-05,-2.0469,0.068904,77.424,17.239,37.097,739.37,-0.037912,104.22,0.086904,supercritical,Ar,C7440371,argon,150.86,48.9805,13.41,0.07457121551081282,1.2,12.4333152989455,0.00046590363000000007
181.03,610.62,28799.0,3.4723e-05,-2.0491,0.071199,77.406,17.243,37.08,740.14,-0.038017,104.37,0.087012,supercritical,Ar,C7440371,argon,150.86,48.9805,13.41,0.07457121551081282,1.2,12.46659384857239,0.00046563543
181.03,612.25,28815.0,3.4704e-05,-2.0513,0.073499,77.387,17.248,37.064,740.92,-0.03812,104.53,0.087119,supercritical,Ar,C7440371,argon,150.86,48.9805,13.41,0.07457121551081282,1.2,12.499872398199283,0.00046538064000000004
181.03,613.88,28831.0,3.4685e-05,-2.0534,0.075805,77.369,17.253,37.047,741.69,-0.038223,104.68,0.087227,supercritical,Ar,C7440371,argon,150.86,48.9805,13.41,0.07457121551081282,1.2,12.533150947826176,0.00046512585
181.03,615.51,28847.0,3.4666e-05,-2.0556,0.078116,77.35,17.257,37.031,742.46,-0.038325,104.83,0.087334,supercritical,Ar,C7440371,argon,150.86,48.9805,13.41,0.07457121551081282,1.2,12.566429497453068,0.0004648710600000001
181.03,617.14,28863.0,3.4647e-05,-2.0578,0.080432,77.332,17.262,37.015,743.23,-0.038427,104.98,0.087441,supercritical,Ar,C7440371,argon,150.86,48.9805,13.41,0.07457121551081282,1.2,12.599708047079961,0.00046461627000000006
181.03,618.77,28879.0,3.4628e-05,-2.0599,0.082753,77.314,17.267,36.999,744.0,-0.038528,105.14,0.087548,supercritical,Ar,C7440371,argon,150.86,48.9805,13.41,0.07457121551081282,1.2,12.632986596706852,0.0004643614800000001
181.03,620.4,28894.0,3.4609e-05,-2.0621,0.085079,77.295,17.271,36.982,744.77,-0.038629,105.29,0.087655,supercritical,Ar,C7440371,argon,150.86,48.9805,13.41,0.07457121551081282,1.2,12.666265146333744,0.00046410669000000005
181.03,622.03,28910.0,3.459e-05,-2.0642,0.08741,77.277,17.276,36.966,745.53,-0.038729,105.44,0.087762,supercritical,Ar,C7440371,argon,150.86,48.9805,13.41,0.07457121551081282,1.2,12.699543695960637,0.0004638519
181.03,623.66,28926.0,3.4571e-05,-2.0663,0.089746,77.259,17.281,36.951,746.3,-0.038828,105.59,0.087868,supercritical,Ar,C7440371,argon,150.86,48.9805,13.41,0.07457121551081282,1.2,12.73282224558753,0.00046359711000000005
181.03,625.29,28941.0,3.4553e-05,-2.0684,0.092087,77.241,17.285,36.935,747.06,-0.038927,105.74,0.087975,supercritical,Ar,C7440371,argon,150.86,48.9805,13.41,0.07457121551081282,1.2,12.766100795214422,0.00046335573000000005
181.03,626.92,28957.0,3.4534e-05,-2.0706,0.094433,77.222,17.29,36.919,747.82,-0.039025,105.89,0.088081,supercritical,Ar,C7440371,argon,150.86,48.9805,13.41,0.07457121551081282,1.2,12.799379344841313,0.00046310094
181.03,628.55,28973.0,3.4515e-05,-2.0727,0.096784,77.204,17.294,36.904,748.58,-0.039122,106.05,0.088187,supercritical,Ar,C7440371,argon,150.86,48.9805,13.41,0.07457121551081282,1.2,12.832657894468205,0.00046284615
181.03,630.18,28988.0,3.4497e-05,-2.0748,0.099139,77.186,17.299,36.888,749.33,-0.039219,106.2,0.088293,supercritical,Ar,C7440371,argon,150.86,48.9805,13.41,0.07457121551081282,1.2,12.865936444095098,0.00046260477000000004
181.03,631.81,29004.0,3.4479e-05,-2.0769,0.1015,77.168,17.304,36.873,750.09,-0.039316,106.35,0.088399,supercritical,Ar,C7440371,argon,150.86,48.9805,13.41,0.07457121551081282,1.2,12.89921499372199,0.00046236339000000005
181.03,633.44,29019.0,3.446e-05,-2.079,0.10387,77.15,17.308,36.857,750.84,-0.039412,106.5,0.088505,supercritical,Ar,C7440371,argon,150.86,48.9805,13.41,0.07457121551081282,1.2,12.932493543348885,0.0004621086
181.03,635.07,29034.0,3.4442e-05,-2.0811,0.10624,77.132,17.313,36.842,751.59,-0.039507,106.65,0.08861,supercritical,Ar,C7440371,argon,150.86,48.9805,13.41,0.07457121551081282,1.2,12.965772092975778,0.00046186722000000007
181.03,636.7,29050.0,3.4424e-05,-2.0831,0.10861,77.114,17.317,36.827,752.34,-0.039602,106.8,0.088716,supercritical,Ar,C7440371,argon,150.86,48.9805,13.41,0.07457121551081282,1.2,12.99905064260267,0.00046162584000000007
181.03,638.33,29065.0,3.4406e-05,-2.0852,0.11099,77.097,17.322,36.812,753.09,-0.039696,106.95,0.088821,supercritical,Ar,C7440371,argon,150.86,48.9805,13.41,0.07457121551081282,1.2,13.032329192229561,0.00046138446000000007
181.03,639.96,29080.0,3.4388e-05,-2.0873,0.11337,77.079,17.327,36.797,753.84,-0.039789,107.1,0.088926,supercritical,Ar,C7440371,argon,150.86,48.9805,13.41,0.07457121551081282,1.2,13.065607741856454,0.00046114308
181.03,641.59,29096.0,3.437e-05,-2.0894,0.11576,77.061,17.331,36.782,754.59,-0.039883,107.25,0.089031,supercritical,Ar,C7440371,argon,150.86,48.9805,13.41,0.07457121551081282,1.2,13.098886291483346,0.0004609017
181.03,643.22,29111.0,3.4352e-05,-2.0914,0.11816,77.043,17.336,36.767,755.33,-0.039975,107.4,0.089136,supercritical,Ar,C7440371,argon,150.86,48.9805,13.41,0.07457121551081282,1.2,13.132164841110239,0.00046066032
181.03,644.85,29126.0,3.4334e-05,-2.0935,0.12055,77.026,17.34,36.752,756.07,-0.040067,107.55,0.089241,supercritical,Ar,C7440371,argon,150.86,48.9805,13.41,0.07457121551081282,1.2,13.165443390737131,0.0004604189400000001
181.03,646.48,29141.0,3.4316e-05,-2.0955,0.12296,77.008,17.345,36.738,756.81,-0.040159,107.7,0.089346,supercritical,Ar,C7440371,argon,150.86,48.9805,13.41,0.07457121551081282,1.2,13.198721940364022,0.0004601775600000001
181.03,648.11,29156.0,3.4298e-05,-2.0975,0.12536,76.99,17.349,36.723,757.55,-0.04025,107.85,0.08945,supercritical,Ar,C7440371,argon,150.86,48.9805,13.41,0.07457121551081282,1.2,13.232000489990915,0.0004599361800000001
181.03,649.74,29171.0,3.4281e-05,-2.0996,0.12778,76.973,17.354,36.708,758.29,-0.04034,108.0,0.089555,supercritical,Ar,C7440371,argon,150.86,48.9805,13.41,0.07457121551081282,1.2,13.265279039617807,0.00045970821000000005
181.03,651.37,29186.0,3.4263e-05,-2.1016,0.13019,76.955,17.359,36.694,759.03,-0.04043,108.15,0.089659,supercritical,Ar,C7440371,argon,150.86,48.9805,13.41,0.07457121551081282,1.2,13.2985575892447,0.00045946683000000005
181.03,653.0,29201.0,3.4245e-05,-2.1036,0.13261,76.938,17.363,36.68,759.76,-0.04052,108.3,0.089763,supercritical,Ar,C7440371,argon,150.86,48.9805,13.41,0.07457121551081282,1.2,13.331836138871592,0.00045922545000000005
181.03,654.63,29216.0,3.4228e-05,-2.1056,0.13504,76.92,17.368,36.665,760.5,-0.040609,108.45,0.089867,supercritical,Ar,C7440371,argon,150.86,48.9805,13.41,0.07457121551081282,1.2,13.365114688498485,0.00045899748000000003
181.03,656.26,29231.0,3.421e-05,-2.1076,0.13747,76.903,17.372,36.651,761.23,-0.040697,108.6,0.089971,supercritical,Ar,C7440371,argon,150.86,48.9805,13.41,0.07457121551081282,1.2,13.398393238125376,0.00045875610000000003
181.03,657.89,29246.0,3.4193e-05,-2.1096,0.1399,76.886,17.377,36.637,761.96,-0.040785,108.75,0.090074,supercritical,Ar,C7440371,argon,150.86,48.9805,13.41,0.07457121551081282,1.2,13.431671787752268,0.00045852813000000006
181.03,659.52,29260.0,3.4176e-05,-2.1116,0.14234,76.868,17.381,36.623,762.69,-0.040872,108.89,0.090178,supercritical,Ar,C7440371,argon,150.86,48.9805,13.41,0.07457121551081282,1.2,13.464950337379161,0.00045830016000000004
181.03,661.15,29275.0,3.4159e-05,-2.1136,0.14478,76.851,17.386,36.609,763.42,-0.040959,109.04,0.090281,supercritical,Ar,C7440371,argon,150.86,48.9805,13.41,0.07457121551081282,1.2,13.498228887006054,0.00045807219000000007
181.03,662.78,29290.0,3.4141e-05,-2.1156,0.14723,76.834,17.39,36.595,764.14,-0.041046,109.19,0.090385,supercritical,Ar,C7440371,argon,150.86,48.9805,13.41,0.07457121551081282,1.2,13.531507436632946,0.00045783081
181.03,664.41,29305.0,3.4124e-05,-2.1176,0.14968,76.817,17.395,36.581,764.87,-0.041132,109.34,0.090488,supercritical,Ar,C7440371,argon,150.86,48.9805,13.41,0.07457121551081282,1.2,13.564785986259837,0.00045760284000000005
181.03,666.04,29319.0,3.4107e-05,-2.1195,0.15213,76.8,17.399,36.568,765.59,-0.041217,109.49,0.090591,supercritical,Ar,C7440371,argon,150.86,48.9805,13.41,0.07457121551081282,1.2,13.59806453588673,0.00045737487
181.03,667.67,29334.0,3.409e-05,-2.1215,0.15459,76.782,17.404,36.554,766.31,-0.041302,109.64,0.090694,supercritical,Ar,C7440371,argon,150.86,48.9805,13.41,0.07457121551081282,1.2,13.631343085513622,0.00045714690000000005
181.03,669.3,29348.0,3.4073e-05,-2.1235,0.15705,76.765,17.408,36.54,767.03,-0.041387,109.78,0.090797,supercritical,Ar,C7440371,argon,150.86,48.9805,13.41,0.07457121551081282,1.2,13.664621635140515,0.00045691893000000003
181.03,670.93,29363.0,3.4056e-05,-2.1254,0.15952,76.748,17.413,36.527,767.75,-0.041471,109.93,0.090899,supercritical,Ar,C7440371,argon,150.86,48.9805,13.41,0.07457121551081282,1.2,13.697900184767407,0.00045669096000000006
181.03,672.56,29378.0,3.404e-05,-2.1274,0.16199,76.731,17.418,36.514,768.47,-0.041555,110.08,0.091002,supercritical,Ar,C7440371,argon,150.86,48.9805,13.41,0.07457121551081282,1.2,13.731178734394298,0.0004564764
181.03,674.19,29392.0,3.4023e-05,-2.1293,0.16447,76.714,17.422,36.5,769.19,-0.041638,110.23,0.091104,supercritical,Ar,C7440371,argon,150.86,48.9805,13.41,0.07457121551081282,1.2,13.764457284021194,0.0004562484300000001
181.03,675.82,29406.0,3.4006e-05,-2.1313,0.16695,76.697,17.427,36.487,769.9,-0.041721,110.38,0.091207,supercritical,Ar,C7440371,argon,150.86,48.9805,13.41,0.07457121551081282,1.2,13.797735833648085,0.00045602046
181.03,677.45,29421.0,3.399e-05,-2.1332,0.16943,76.68,17.431,36.474,770.62,-0.041803,110.52,0.091309,supercritical,Ar,C7440371,argon,150.86,48.9805,13.41,0.07457121551081282,1.2,13.831014383274978,0.0004558059
181.03,679.08,29435.0,3.3973e-05,-2.1351,0.17192,76.664,17.436,36.46,771.33,-0.041885,110.67,0.091411,supercritical,Ar,C7440371,argon,150.86,48.9805,13.41,0.07457121551081282,1.2,13.86429293290187,0.00045557793000000006
181.03,680.71,29449.0,3.3956e-05,-2.137,0.17441,76.647,17.44,36.447,772.04,-0.041966,110.82,0.091513,supercritical,Ar,C7440371,argon,150.86,48.9805,13.41,0.07457121551081282,1.2,13.897571482528763,0.00045534996000000003
181.03,682.34,29464.0,3.394e-05,-2.139,0.1769,76.63,17.445,36.434,772.75,-0.042047,110.97,0.091614,supercritical,Ar,C7440371,argon,150.86,48.9805,13.41,0.07457121551081282,1.2,13.930850032155655,0.0004551354
181.03,683.97,29478.0,3.3924e-05,-2.1409,0.1794,76.613,17.449,36.421,773.46,-0.042127,111.11,0.091716,supercritical,Ar,C7440371,argon,150.86,48.9805,13.41,0.07457121551081282,1.2,13.964128581782546,0.0004549208400000001
181.03,685.6,29492.0,3.3907e-05,-2.1428,0.1819,76.597,17.453,36.409,774.16,-0.042207,111.26,0.091818,supercritical,Ar,C7440371,argon,150.86,48.9805,13.41,0.07457121551081282,1.2,13.997407131409439,0.00045469287
181.03,687.23,29506.0,3.3891e-05,-2.1447,0.18441,76.58,17.458,36.396,774.87,-0.042287,111.41,0.091919,supercritical,Ar,C7440371,argon,150.86,48.9805,13.41,0.07457121551081282,1.2,14.030685681036331,0.00045447831000000003
181.03,688.86,29521.0,3.3875e-05,-2.1466,0.18692,76.563,17.462,36.383,775.57,-0.042366,111.55,0.09202,supercritical,Ar,C7440371,argon,150.86,48.9805,13.41,0.07457121551081282,1.2,14.063964230663224,0.00045426375
181.03,690.49,29535.0,3.3858e-05,-2.1485,0.18944,76.547,17.467,36.37,776.28,-0.042445,111.7,0.092121,supercritical,Ar,C7440371,argon,150.86,48.9805,13.41,0.07457121551081282,1.2,14.097242780290117,0.00045403578000000007
181.03,692.12,29549.0,3.3842e-05,-2.1503,0.19195,76.53,17.471,36.358,776.98,-0.042523,111.85,0.092222,supercritical,Ar,C7440371,argon,150.86,48.9805,13.41,0.07457121551081282,1.2,14.130521329917007,0.00045382122
181.03,693.75,29563.0,3.3826e-05,-2.1522,0.19448,76.514,17.476,36.345,777.68,-0.042601,111.99,0.092323,supercritical,Ar,C7440371,argon,150.86,48.9805,13.41,0.07457121551081282,1.2,14.1637998795439,0.00045360666
181.03,695.38,29577.0,3.381e-05,-2.1541,0.197,76.497,17.48,36.333,778.38,-0.042679,112.14,0.092424,supercritical,Ar,C7440371,argon,150.86,48.9805,13.41,0.07457121551081282,1.2,14.197078429170793,0.0004533921000000001
181.03,697.01,29591.0,3.3794e-05,-2.156,0.19953,76.481,17.485,36.32,779.07,-0.042756,112.29,0.092525,supercritical,Ar,C7440371,argon,150.86,48.9805,13.41,0.07457121551081282,1.2,14.230356978797685,0.0004531775400000001
181.03,698.64,29605.0,3.3778e-05,-2.1578,0.20206,76.464,17.489,36.308,779.77,-0.042832,112.43,0.092625,supercritical,Ar,C7440371,argon,150.86,48.9805,13.41,0.07457121551081282,1.2,14.263635528424578,0.00045296298000000005
181.03,700.27,29619.0,3.3762e-05,-2.1597,0.2046,76.448,17.494,36.296,780.46,-0.042909,112.58,0.092726,supercritical,Ar,C7440371,argon,150.86,48.9805,13.41,0.07457121551081282,1.2,14.296914078051469,0.00045274842000000005
181.03,701.9,29633.0,3.3747e-05,-2.1615,0.20714,76.431,17.498,36.283,781.16,-0.042985,112.72,0.092826,supercritical,Ar,C7440371,argon,150.86,48.9805,13.41,0.07457121551081282,1.2,14.330192627678361,0.00045254727000000003
181.03,703.53,29646.0,3.3731e-05,-2.1634,0.20968,76.415,17.503,36.271,781.85,-0.04306,112.87,0.092926,supercritical,Ar,C7440371,argon,150.86,48.9805,13.41,0.07457121551081282,1.2,14.363471177305254,0.00045233271000000004
181.03,705.16,29660.0,3.3715e-05,-2.1652,0.21223,76.399,17.507,36.259,782.54,-0.043135,113.02,0.093026,supercritical,Ar,C7440371,argon,150.86,48.9805,13.41,0.07457121551081282,1.2,14.396749726932146,0.00045211815000000005
181.03,706.79,29674.0,3.37e-05,-2.1671,0.21478,76.383,17.511,36.247,783.23,-0.04321,113.16,0.093126,supercritical,Ar,C7440371,argon,150.86,48.9805,13.41,0.07457121551081282,1.2,14.430028276559039,0.00045191700000000003
181.03,708.42,29688.0,3.3684e-05,-2.1689,0.21734,76.366,17.516,36.235,783.92,-0.043284,113.31,0.093226,supercritical,Ar,C7440371,argon,150.86,48.9805,13.41,0.07457121551081282,1.2,14.46330682618593,0.00045170244000000004
181.03,710.05,29701.0,3.3668e-05,-2.1707,0.2199,76.35,17.52,36.223,784.61,-0.043358,113.45,0.093326,supercritical,Ar,C7440371,argon,150.86,48.9805,13.41,0.07457121551081282,1.2,14.496585375812822,0.00045148788
181.03,711.68,29715.0,3.3653e-05,-2.1725,0.22246,76.334,17.525,36.211,785.29,-0.043431,113.6,0.093425,supercritical,Ar,C7440371,argon,150.86,48.9805,13.41,0.07457121551081282,1.2,14.529863925439715,0.00045128673
181.03,713.31,29729.0,3.3637e-05,-2.1744,0.22502,76.318,17.529,36.199,785.98,-0.043504,113.74,0.093525,supercritical,Ar,C7440371,argon,150.86,48.9805,13.41,0.07457121551081282,1.2,14.563142475066607,0.0004510721700000001
181.03,714.94,29742.0,3.3622e-05,-2.1762,0.22759,76.302,17.534,36.188,786.66,-0.043577,113.89,0.093624,supercritical,Ar,C7440371,argon,150.86,48.9805,13.41,0.07457121551081282,1.2,14.596421024693502,0.00045087102
181.03,716.57,29756.0,3.3607e-05,-2.178,0.23016,76.286,17.538,36.176,787.34,-0.043649,114.03,0.093723,supercritical,Ar,C7440371,argon,150.86,48.9805,13.41,0.07457121551081282,1.2,14.629699574320394,0.00045066987000000005
181.03,718.2,29770.0,3.3591e-05,-2.1798,0.23274,76.27,17.542,36.164,788.02,-0.043721,114.18,0.093822,supercritical,Ar,C7440371,argon,150.86,48.9805,13.41,0.07457121551081282,1.2,14.662978123947287,0.00045045531
181.03,719.83,29783.0,3.3576e-05,-2.1816,0.23532,76.254,17.547,36.153,788.7,-0.043793,114.32,0.093921,supercritical,Ar,C7440371,argon,150.86,48.9805,13.41,0.07457121551081282,1.2,14.696256673574178,0.00045025416000000004
181.03,721.46,29797.0,3.3561e-05,-2.1834,0.2379,76.238,17.551,36.141,789.38,-0.043864,114.47,0.09402,supercritical,Ar,C7440371,argon,150.86,48.9805,13.41,0.07457121551081282,1.2,14.72953522320107,0.00045005301
181.03,723.09,29810.0,3.3546e-05,-2.1852,0.24049,76.222,17.556,36.13,790.06,-0.043935,114.61,0.094119,supercritical,Ar,C7440371,argon,150.86,48.9805,13.41,0.07457121551081282,1.2,14.762813772827963,0.00044985186000000006
181.03,724.72,29824.0,3.3531e-05,-2.1869,0.24308,76.206,17.56,36.118,790.73,-0.044005,114.76,0.094218,supercritical,Ar,C7440371,argon,150.86,48.9805,13.41,0.07457121551081282,1.2,14.796092322454856,0.00044965071000000004
181.03,726.35,29837.0,3.3515e-05,-2.1887,0.24567,76.19,17.564,36.107,791.41,-0.044076,114.9,0.094316,supercritical,Ar,C7440371,argon,150.86,48.9805,13.41,0.07457121551081282,1.2,14.829370872081748,0.00044943615000000005
181.03,727.98,29850.0,3.35e-05,-2.1905,0.24826,76.174,17.569,36.096,792.08,-0.044145,115.05,0.094415,supercritical,Ar,C7440371,argon,150.86,48.9805,13.41,0.07457121551081282,1.2,14.862649421708639,0.0004492350000000001
181.03,729.61,29864.0,3.3485e-05,-2.1923,0.25086,76.158,17.573,36.085,792.75,-0.044215,115.19,0.094513,supercritical,Ar,C7440371,argon,150.86,48.9805,13.41,0.07457121551081282,1.2,14.895927971335531,0.00044903385000000007
181.03,731.24,29877.0,3.3471e-05,-2.194,0.25347,76.143,17.578,36.073,793.43,-0.044284,115.34,0.094611,supercritical,Ar,C7440371,argon,150.86,48.9805,13.41,0.07457121551081282,1.2,14.929206520962424,0.00044884611
181.03,732.87,29890.0,3.3456e-05,-2.1958,0.25607,76.127,17.582,36.062,794.1,-0.044352,115.48,0.094709,supercritical,Ar,C7440371,argon,150.86,48.9805,13.41,0.07457121551081282,1.2,14.962485070589317,0.00044864496000000006
181.03,734.5,29904.0,3.3441e-05,-2.1976,0.25868,76.111,17.586,36.051,794.76,-0.044421,115.62,0.094807,supercritical,Ar,C7440371,argon,150.86,48.9805,13.41,0.07457121551081282,1.2,14.99576362021621,0.00044844381000000005
181.03,736.13,29917.0,3.3426e-05,-2.1993,0.26129,76.095,17.591,36.04,795.43,-0.044489,115.77,0.094905,supercritical,Ar,C7440371,argon,150.86,48.9805,13.41,0.07457121551081282,1.2,15.029042169843102,0.0004482426600000001
181.03,737.76,29930.0,3.3411e-05,-2.201,0.26391,76.08,17.595,36.029,796.1,-0.044556,115.91,0.095003,supercritical,Ar,C7440371,argon,150.86,48.9805,13.41,0.07457121551081282,1.2,15.062320719469993,0.00044804151000000006
181.03,739.39,29943.0,3.3397e-05,-2.2028,0.26652,76.064,17.6,36.018,796.76,-0.044624,116.06,0.095101,supercritical,Ar,C7440371,argon,150.86,48.9805,13.41,0.07457121551081282,1.2,15.095599269096885,0.00044785377