Temperature (K),Pressure (bar),Density (mol/m3),Volume (m3/mol),Internal Energy (kJ/mol),Enthalpy (kJ/mol),Entropy (J/mol*K),Cv (J/mol*K),Cp (J/mol*K),Sound Spd. (m/s),Joule-Thomson (K/bar),Viscosity (uPa*s),Therm. Cond. (W/m*K),Phase,substance,substance_id,substance_name,Tc,Pc,rhoc,Vmc,Tr,Pr,Vmr
304.18,1.0,39.725,0.025173,19.972,22.489,121.31,29.2,37.696,271.1,1.0389,15.203,0.017095,vapor,CO2,C124389,carbon-dioxide,304.18,73.8,10.6,0.09433962264150944,1.0,0.013550135501355014,0.2668338
304.18,3.4583,139.0,0.0071943,19.904,22.392,110.77,29.449,38.412,269.32,1.0399,15.229,0.017234,vapor,CO2,C124389,carbon-dioxide,304.18,73.8,10.6,0.09433962264150944,1.0,0.046860433604336046,0.07625958
304.18,5.9167,240.68,0.0041548,19.834,22.293,106.07,29.703,39.171,267.51,1.0408,15.257,0.017381,vapor,CO2,C124389,carbon-dioxide,304.18,73.8,10.6,0.09433962264150944,1.0,0.0801720867208672,0.04404088
304.18,8.375,344.93,0.0028991,19.763,22.191,102.95,29.966,39.977,265.67,1.0417,15.288,0.017537,vapor,CO2,C124389,carbon-dioxide,304.18,73.8,10.6,0.09433962264150944,1.0,0.11348238482384825,0.030730459999999998
304.18,10.833,451.91,0.0022128,19.691,22.088,100.57,30.236,40.836,263.81,1.0426,15.323,0.017704,vapor,CO2,C124389,carbon-dioxide,304.18,73.8,10.6,0.09433962264150944,1.0,0.14678861788617886,0.02345568
304.18,13.292,561.8,0.00178,19.616,21.982,98.617,30.514,41.753,261.92,1.0434,15.361,0.017883,vapor,CO2,C124389,carbon-dioxide,304.18,73.8,10.6,0.09433962264150944,1.0,0.18010840108401086,0.018867999999999996
304.18,15.75,674.82,0.0014819,19.54,21.874,96.95,30.803,42.736,259.99,1.0442,15.403,0.018074,vapor,CO2,C124389,carbon-dioxide,304.18,73.8,10.6,0.09433962264150944,1.0,0.21341463414634146,0.01570814
304.18,18.208,791.18,0.0012639,19.461,21.762,95.479,31.101,43.793,258.04,1.0448,15.449,0.018279,vapor,CO2,C124389,carbon-dioxide,304.18,73.8,10.6,0.09433962264150944,1.0,0.24672086720867206,0.01339734
304.18,20.667,911.16,0.0010975,19.38,21.649,94.153,31.411,44.933,256.05,1.0454,15.499,0.0185,vapor,CO2,C124389,carbon-dioxide,304.18,73.8,10.6,0.09433962264150944,1.0,0.2800406504065041,0.011633499999999998
304.18,23.125,1035.0,0.00096614,19.297,21.531,92.936,31.733,46.167,254.02,1.0458,15.555,0.018737,vapor,CO2,C124389,carbon-dioxide,304.18,73.8,10.6,0.09433962264150944,1.0,0.3133468834688347,0.010241084
304.18,25.583,1163.2,0.00085972,19.212,21.411,91.804,32.07,47.509,251.95,1.0461,15.616,0.018995,vapor,CO2,C124389,carbon-dioxide,304.18,73.8,10.6,0.09433962264150944,1.0,0.3466531165311653,0.009113032
304.18,28.042,1295.9,0.00077167,19.123,21.287,90.738,32.422,48.975,249.84,1.0462,15.682,0.019275,vapor,CO2,C124389,carbon-dioxide,304.18,73.8,10.6,0.09433962264150944,1.0,0.37997289972899734,0.008179701999999999
304.18,30.5,1433.7,0.00069751,19.032,21.159,89.724,32.791,50.585,247.68,1.046,15.756,0.01958,vapor,CO2,C124389,carbon-dioxide,304.18,73.8,10.6,0.09433962264150944,1.0,0.41327913279132794,0.007393606
304.18,32.958,1577.0,0.00063411,18.937,21.027,88.752,33.179,52.362,245.48,1.0456,15.837,0.019913,vapor,CO2,C124389,carbon-dioxide,304.18,73.8,10.6,0.09433962264150944,1.0,0.44658536585365854,0.006721566
304.18,35.417,1726.5,0.00057922,18.838,20.89,87.812,33.589,54.336,243.22,1.0449,15.927,0.020281,vapor,CO2,C124389,carbon-dioxide,304.18,73.8,10.6,0.09433962264150944,1.0,0.47990514905149056,0.006139731999999999
304.18,37.875,1882.8,0.00053113,18.736,20.747,86.896,34.024,56.545,240.9,1.0439,16.026,0.020687,vapor,CO2,C124389,carbon-dioxide,304.18,73.8,10.6,0.09433962264150944,1.0,0.5132113821138211,0.005629978
304.18,40.333,2046.7,0.00048859,18.629,20.599,85.997,34.487,59.035,238.51,1.0424,16.136,0.02114,vapor,CO2,C124389,carbon-dioxide,304.18,73.8,10.6,0.09433962264150944,1.0,0.5465176151761517,0.005179054
304.18,42.792,2219.3,0.00045059,18.516,20.445,85.109,34.983,61.869,236.05,1.0405,16.259,0.021648,vapor,CO2,C124389,carbon-dioxide,304.18,73.8,10.6,0.09433962264150944,1.0,0.5798373983739837,0.004776254
304.18,45.25,2401.7,0.00041636,18.398,20.282,84.226,35.517,65.129,233.52,1.0379,16.397,0.022222,vapor,CO2,C124389,carbon-dioxide,304.18,73.8,10.6,0.09433962264150944,1.0,0.6131436314363143,0.004413416
304.18,47.708,2595.5,0.00038528,18.274,20.112,83.341,36.097,68.924,230.89,1.0346,16.552,0.022877,vapor,CO2,C124389,carbon-dioxide,304.18,73.8,10.6,0.09433962264150944,1.0,0.6464498644986449,0.0040839679999999995
304.18,50.167,2802.6,0.00035681,18.141,19.931,82.448,36.731,73.409,228.15,1.0303,16.728,0.023632,vapor,CO2,C124389,carbon-dioxide,304.18,73.8,10.6,0.09433962264150944,1.0,0.679769647696477,0.0037821859999999994
304.18,52.625,3025.4,0.00033053,18.0,19.739,81.539,37.431,78.802,225.3,1.025,16.929,0.024514,vapor,CO2,C124389,carbon-dioxide,304.18,73.8,10.6,0.09433962264150944,1.0,0.7130758807588076,0.0035036179999999996
304.18,55.083,3267.2,0.00030607,17.847,19.533,80.605,38.215,85.433,222.3,1.0183,17.161,0.025561,vapor,CO2,C124389,carbon-dioxide,304.18,73.8,10.6,0.09433962264150944,1.0,0.7463821138211382,0.0032443419999999995
304.18,57.542,3532.6,0.00028308,17.681,19.31,79.634,39.106,93.812,219.12,1.0098,17.432,0.026825,vapor,CO2,C124389,carbon-dioxide,304.18,73.8,10.6,0.09433962264150944,1.0,0.7797018970189702,0.003000648
304.18,60.0,3828.0,0.00026123,17.498,19.066,78.61,40.138,104.79,215.72,0.9989,17.756,0.02839,vapor,CO2,C124389,carbon-dioxide,304.18,73.8,10.6,0.09433962264150944,1.0,0.8130081300813008,0.0027690379999999997
304.18,62.458,4163.5,0.00024018,17.293,18.793,77.51,41.368,119.89,212.02,0.98473,18.152,0.030389,vapor,CO2,C124389,carbon-dioxide,304.18,73.8,10.6,0.09433962264150944,1.0,0.8463143631436314,0.002545908
304.18,64.917,4555.4,0.00021952,17.055,18.481,76.298,42.891,142.2,207.89,0.96579,18.653,0.033062,vapor,CO2,C124389,carbon-dioxide,304.18,73.8,10.6,0.09433962264150944,1.0,0.8796341463414634,0.002326912
304.18,67.375,5034.4,0.00019863,16.77,18.108,74.906,44.894,179.0,203.1,0.93937,19.321,0.036896,vapor,CO2,C124389,carbon-dioxide,304.18,73.8,10.6,0.09433962264150944,1.0,0.912940379403794,0.0021054779999999996
304.18,69.833,5670.3,0.00017636,16.4,17.631,73.185,47.825,253.54,197.07,0.89948,20.309,0.043153,vapor,CO2,C124389,carbon-dioxide,304.18,73.8,10.6,0.09433962264150944,1.0,0.9462466124661246,0.0018694159999999998
304.18,72.292,6710.3,0.00014903,15.816,16.893,70.627,53.465,512.17,187.57,0.82582,22.178,0.057483,vapor,CO2,C124389,carbon-dioxide,304.18,73.8,10.6,0.09433962264150944,1.0,0.9795663956639566,0.001579718
304.18,74.75,13731.0,7.2826e-05,12.842,13.387,59.007,53.895,776.49,204.89,0.37893,44.615,0.084774,vapor,CO2,C124389,carbon-dioxide,304.18,73.8,10.6,0.09433962264150944,1.0,1.0128726287262872,0.0007719555999999999
304.18,74.75,13731.0,7.2826e-05,12.842,13.387,59.007,53.895,776.49,204.89,0.37893,44.615,0.084774,supercritical,CO2,C124389,carbon-dioxide,304.18,73.8,10.6,0.09433962264150944,1.0,1.0128726287262872,0.0007719555999999999
304.18,77.208,14812.0,6.7513e-05,12.461,12.982,57.622,48.424,365.85,246.15,0.28677,49.966,0.077892,supercritical,CO2,C124389,carbon-dioxide,304.18,73.8,10.6,0.09433962264150944,1.0,1.0461788617886179,0.0007156377999999999
304.18,79.667,15368.0,6.507e-05,12.259,12.778,56.896,46.643,276.82,270.11,0.2439,52.982,0.07717,supercritical,CO2,C124389,carbon-dioxide,304.18,73.8,10.6,0.09433962264150944,1.0,1.0794986449864499,0.0006897419999999999
304.18,82.125,15762.0,6.3444e-05,12.114,12.635,56.373,45.542,234.57,288.81,0.21589,55.236,0.07748,supercritical,CO2,C124389,carbon-dioxide,304.18,73.8,10.6,0.09433962264150944,1.0,1.1128048780487805,0.0006725063999999999
304.18,84.583,16073.0,6.2217e-05,11.997,12.523,55.956,44.757,209.15,304.5,0.19537,57.088,0.078114,supercritical,CO2,C124389,carbon-dioxide,304.18,73.8,10.6,0.09433962264150944,1.0,1.146111111111111,0.0006595002
304.18,87.042,16332.0,6.1229e-05,11.898,12.431,55.603,44.16,191.87,318.13,0.17935,58.686,0.078861,supercritical,CO2,C124389,carbon-dioxide,304.18,73.8,10.6,0.09433962264150944,1.0,1.179430894308943,0.0006490274
304.18,89.5,16556.0,6.04e-05,11.812,12.352,55.296,43.69,179.21,330.27,0.16632,60.108,0.079644,supercritical,CO2,C124389,carbon-dioxide,304.18,73.8,10.6,0.09433962264150944,1.0,1.2127371273712737,0.0006402399999999999
304.18,91.958,16755.0,5.9685e-05,11.735,12.284,55.021,43.31,169.43,341.26,0.1554,61.397,0.08043,supercritical,CO2,C124389,carbon-dioxide,304.18,73.8,10.6,0.09433962264150944,1.0,1.2460433604336043,0.000632661
304.18,94.417,16933.0,5.9056e-05,11.665,12.222,54.772,42.995,161.6,351.34,0.14603,62.585,0.081203,supercritical,CO2,C124389,carbon-dioxide,304.18,73.8,10.6,0.09433962264150944,1.0,1.2793631436314363,0.0006259935999999999
304.18,96.875,17096.0,5.8494e-05,11.601,12.167,54.543,42.729,155.14,360.68,0.13787,63.69,0.081959,supercritical,CO2,C124389,carbon-dioxide,304.18,73.8,10.6,0.09433962264150944,1.0,1.312669376693767,0.0006200363999999999
304.18,99.333,17246.0,5.7985e-05,11.541,12.117,54.33,42.503,149.71,369.42,0.13065,64.728,0.082694,supercritical,CO2,C124389,carbon-dioxide,304.18,73.8,10.6,0.09433962264150944,1.0,1.3459756097560975,0.000614641
304.18,101.79,17385.0,5.7521e-05,11.485,12.071,54.132,42.307,145.04,377.65,0.12419,65.708,0.083407,supercritical,CO2,C124389,carbon-dioxide,304.18,73.8,10.6,0.09433962264150944,1.0,1.379268292682927,0.0006097225999999999
304.18,104.25,17515.0,5.7095e-05,11.433,12.028,53.946,42.136,140.99,385.43,0.11836,66.64,0.084099,supercritical,CO2,C124389,carbon-dioxide,304.18,73.8,10.6,0.09433962264150944,1.0,1.4126016260162602,0.000605207
304.18,106.71,17637.0,5.6699e-05,11.384,11.989,53.77,41.985,137.42,392.84,0.11306,67.529,0.084771,supercritical,CO2,C124389,carbon-dioxide,304.18,73.8,10.6,0.09433962264150944,1.0,1.4459349593495934,0.0006010093999999999
304.18,109.17,17752.0,5.6332e-05,11.337,11.952,53.603,41.851,134.24,399.91,0.10821,68.381,0.085424,supercritical,CO2,C124389,carbon-dioxide,304.18,73.8,10.6,0.09433962264150944,1.0,1.4792682926829268,0.0005971192
304.18,111.63,17861.0,5.5987e-05,11.292,11.917,53.443,41.732,131.4,406.68,0.10375,69.199,0.086058,supercritical,CO2,C124389,carbon-dioxide,304.18,73.8,10.6,0.09433962264150944,1.0,1.5126016260162602,0.0005934622
304.18,114.08,17965.0,5.5664e-05,11.25,11.885,53.291,41.624,128.83,413.19,0.099619,69.989,0.086675,supercritical,CO2,C124389,carbon-dioxide,304.18,73.8,10.6,0.09433962264150944,1.0,1.54579945799458,0.0005900384
304.18,116.54,18064.0,5.5359e-05,11.209,11.854,53.146,41.526,126.49,419.46,0.095783,70.751,0.087276,supercritical,CO2,C124389,carbon-dioxide,304.18,73.8,10.6,0.09433962264150944,1.0,1.5791327913279134,0.0005868054
304.18,119.0,18158.0,5.5071e-05,11.17,11.825,53.006,41.438,124.36,425.51,0.092207,71.489,0.087861,supercritical,CO2,C124389,carbon-dioxide,304.18,73.8,10.6,0.09433962264150944,1.0,1.6124661246612466,0.0005837526
304.18,121.46,18249.0,5.4797e-05,11.132,11.798,52.871,41.357,122.4,431.36,0.088861,72.206,0.088433,supercritical,CO2,C124389,carbon-dioxide,304.18,73.8,10.6,0.09433962264150944,1.0,1.6457994579945798,0.0005808482
304.18,123.92,18336.0,5.4537e-05,11.096,11.771,52.741,41.282,120.59,437.03,0.085721,72.902,0.088991,supercritical,CO2,C124389,carbon-dioxide,304.18,73.8,10.6,0.09433962264150944,1.0,1.6791327913279133,0.0005780922
304.18,126.38,18420.0,5.4288e-05,11.061,11.747,52.616,41.214,118.92,442.53,0.082767,73.58,0.089536,supercritical,CO2,C124389,carbon-dioxide,304.18,73.8,10.6,0.09433962264150944,1.0,1.7124661246612467,0.0005754527999999999
304.18,128.83,18501.0,5.4051e-05,11.027,11.723,52.494,41.151,117.36,447.87,0.079981,74.24,0.09007,supercritical,CO2,C124389,carbon-dioxide,304.18,73.8,10.6,0.09433962264150944,1.0,1.7456639566395666,0.0005729406
304.18,131.29,18579.0,5.3824e-05,10.994,11.7,52.377,41.093,115.91,453.07,0.077347,74.885,0.090592,supercritical,CO2,C124389,carbon-dioxide,304.18,73.8,10.6,0.09433962264150944,1.0,1.7789972899728996,0.0005705344
304.18,133.75,18655.0,5.3606e-05,10.962,11.679,52.262,41.04,114.56,458.13,0.074852,75.515,0.091104,supercritical,CO2,C124389,carbon-dioxide,304.18,73.8,10.6,0.09433962264150944,1.0,1.812330623306233,0.0005682236
304.18,136.21,18728.0,5.3397e-05,10.931,11.658,52.151,40.99,113.29,463.06,0.072483,76.132,0.091605,supercritical,CO2,C124389,carbon-dioxide,304.18,73.8,10.6,0.09433962264150944,1.0,1.8456639566395665,0.0005660082
304.18,138.67,18799.0,5.3195e-05,10.901,11.639,52.043,40.943,112.09,467.88,0.070232,76.736,0.092097,supercritical,CO2,C124389,carbon-dioxide,304.18,73.8,10.6,0.09433962264150944,1.0,1.8789972899728997,0.000563867
304.18,141.13,18867.0,5.3001e-05,10.872,11.62,51.938,40.9,110.96,472.58,0.068087,77.327,0.09258,supercritical,CO2,C124389,carbon-dioxide,304.18,73.8,10.6,0.09433962264150944,1.0,1.9123306233062332,0.0005618106
304.18,143.58,18934.0,5.2814e-05,10.843,11.601,51.835,40.859,109.9,477.17,0.066041,77.908,0.093055,supercritical,CO2,C124389,carbon-dioxide,304.18,73.8,10.6,0.09433962264150944,1.0,1.945528455284553,0.0005598284
304.18,146.04,18999.0,5.2633e-05,10.815,11.584,51.735,40.822,108.9,481.67,0.064087,78.478,0.093521,supercritical,CO2,C124389,carbon-dioxide,304.18,73.8,10.6,0.09433962264150944,1.0,1.978861788617886,0.0005579097999999999
304.18,148.5,19063.0,5.2458e-05,10.788,11.567,51.638,40.786,107.94,486.07,0.062217,79.038,0.093979,supercritical,CO2,C124389,carbon-dioxide,304.18,73.8,10.6,0.09433962264150944,1.0,2.0121951219512195,0.0005560547999999999
304.18,150.96,19125.0,5.2289e-05,10.761,11.551,51.542,40.753,107.04,490.38,0.060427,79.588,0.094431,supercritical,CO2,C124389,carbon-dioxide,304.18,73.8,10.6,0.09433962264150944,1.0,2.045528455284553,0.0005542634
304.18,153.42,19185.0,5.2124e-05,10.736,11.535,51.448,40.722,106.18,494.6,0.05871,80.13,0.094875,supercritical,CO2,C124389,carbon-dioxide,304.18,73.8,10.6,0.09433962264150944,1.0,2.078861788617886,0.0005525144
304.18,155.88,19244.0,5.1965e-05,10.71,11.52,51.357,40.693,105.36,498.74,0.057062,80.663,0.095312,supercritical,CO2,C124389,carbon-dioxide,304.18,73.8,10.6,0.09433962264150944,1.0,2.1121951219512196,0.000550829
304.18,158.33,19301.0,5.181e-05,10.685,11.506,51.267,40.666,104.58,502.8,0.055478,81.188,0.095743,supercritical,CO2,C124389,carbon-dioxide,304.18,73.8,10.6,0.09433962264150944,1.0,2.1453929539295395,0.000549186
304.18,160.79,19357.0,5.166e-05,10.661,11.492,51.179,40.64,103.83,506.79,0.053954,81.706,0.096167,supercritical,CO2,C124389,carbon-dioxide,304.18,73.8,10.6,0.09433962264150944,1.0,2.1787262872628728,0.0005475959999999999
304.18,163.25,19412.0,5.1514e-05,10.637,11.478,51.093,40.616,103.12,510.71,0.052486,82.216,0.096586,supercritical,CO2,C124389,carbon-dioxide,304.18,73.8,10.6,0.09433962264150944,1.0,2.212059620596206,0.0005460484
304.18,165.71,19466.0,5.1371e-05,10.614,11.465,51.009,40.593,102.44,514.56,0.051072,82.719,0.096999,supercritical,CO2,C124389,carbon-dioxide,304.18,73.8,10.6,0.09433962264150944,1.0,2.2453929539295396,0.0005445326
304.18,168.17,19519.0,5.1232e-05,10.591,11.452,50.926,40.572,101.78,518.35,0.049707,83.216,0.097406,supercritical,CO2,C124389,carbon-dioxide,304.18,73.8,10.6,0.09433962264150944,1.0,2.2787262872628724,0.0005430592
304.18,170.63,19570.0,5.1097e-05,10.568,11.44,50.844,40.551,101.15,522.07,0.04839,83.706,0.097809,supercritical,CO2,C124389,carbon-dioxide,304.18,73.8,10.6,0.09433962264150944,1.0,2.312059620596206,0.0005416282
304.18,173.08,19621.0,5.0965e-05,10.546,11.428,50.764,40.532,100.55,525.73,0.047117,84.191,0.098206,supercritical,CO2,C124389,carbon-dioxide,304.18,73.8,10.6,0.09433962264150944,1.0,2.345257452574526,0.0005402289999999999
304.18,175.54,19671.0,5.0837e-05,10.524,11.417,50.685,40.515,99.971,529.34,0.045886,84.669,0.098598,supercritical,CO2,C124389,carbon-dioxide,304.18,73.8,10.6,0.09433962264150944,1.0,2.378590785907859,0.0005388722
304.18,178.0,19720.0,5.0711e-05,10.503,11.406,50.607,40.498,99.413,532.89,0.044695,85.142,0.098986,supercritical,CO2,C124389,carbon-dioxide,304.18,73.8,10.6,0.09433962264150944,1.0,2.4119241192411924,0.0005375366
304.18,180.46,19767.0,5.0588e-05,10.482,11.395,50.531,40.482,98.875,536.39,0.043542,85.61,0.099369,supercritical,CO2,C124389,carbon-dioxide,304.18,73.8,10.6,0.09433962264150944,1.0,2.445257452574526,0.0005362327999999999
304.18,182.92,19814.0,5.0468e-05,10.461,11.385,50.456,40.467,98.357,539.83,0.042424,86.072,0.099748,supercritical,CO2,C124389,carbon-dioxide,304.18,73.8,10.6,0.09433962264150944,1.0,2.478590785907859,0.0005349608
304.18,185.38,19861.0,5.0351e-05,10.441,11.374,50.382,40.453,97.857,543.23,0.04134,86.53,0.10012,supercritical,CO2,C124389,carbon-dioxide,304.18,73.8,10.6,0.09433962264150944,1.0,2.5119241192411925,0.0005337206
304.18,187.83,19906.0,5.0236e-05,10.421,11.365,50.309,40.439,97.374,546.58,0.040288,86.983,0.10049,supercritical,CO2,C124389,carbon-dioxide,304.18,73.8,10.6,0.09433962264150944,1.0,2.5451219512195125,0.0005325016
304.18,190.29,19951.0,5.0124e-05,10.401,11.355,50.238,40.427,96.907,549.88,0.039268,87.431,0.10086,supercritical,CO2,C124389,carbon-dioxide,304.18,73.8,10.6,0.09433962264150944,1.0,2.5784552845528457,0.0005313144
304.18,192.75,19995.0,5.0014e-05,10.382,11.346,50.167,40.415,96.455,553.15,0.038276,87.875,0.10122,supercritical,CO2,C124389,carbon-dioxide,304.18,73.8,10.6,0.09433962264150944,1.0,2.611788617886179,0.0005301484
304.18,195.21,20038.0,4.9906e-05,10.363,11.337,50.097,40.404,96.018,556.36,0.037312,88.315,0.10158,supercritical,CO2,C124389,carbon-dioxide,304.18,73.8,10.6,0.09433962264150944,1.0,2.6451219512195125,0.0005290036
304.18,197.67,20080.0,4.98e-05,10.344,11.328,50.028,40.393,95.595,559.54,0.036375,88.75,0.10194,supercritical,CO2,C124389,carbon-dioxide,304.18,73.8,10.6,0.09433962264150944,1.0,2.6784552845528453,0.0005278799999999999
304.18,200.12,20122.0,4.9696e-05,10.325,11.32,49.96,40.383,95.185,562.68,0.035463,89.182,0.10229,supercritical,CO2,C124389,carbon-dioxide,304.18,73.8,10.6,0.09433962264150944,1.0,2.7116531165311657,0.0005267776
304.18,202.58,20163.0,4.9595e-05,10.307,11.312,49.893,40.374,94.788,565.78,0.034576,89.61,0.10264,supercritical,CO2,C124389,carbon-dioxide,304.18,73.8,10.6,0.09433962264150944,1.0,2.744986449864499,0.0005257069999999999
304.18,205.04,20204.0,4.9495e-05,10.289,11.304,49.827,40.365,94.402,568.84,0.033712,90.034,0.10298,supercritical,CO2,C124389,carbon-dioxide,304.18,73.8,10.6,0.09433962264150944,1.0,2.778319783197832,0.0005246469999999999
304.18,207.5,20244.0,4.9397e-05,10.271,11.296,49.762,40.357,94.028,571.86,0.03287,90.455,0.10332,supercritical,CO2,C124389,carbon-dioxide,304.18,73.8,10.6,0.09433962264150944,1.0,2.8116531165311653,0.0005236082
304.18,209.96,20284.0,4.9301e-05,10.253,11.289,49.697,40.349,93.664,574.86,0.032049,90.872,0.10366,supercritical,CO2,C124389,carbon-dioxide,304.18,73.8,10.6,0.09433962264150944,1.0,2.844986449864499,0.0005225906
304.18,212.42,20323.0,4.9206e-05,10.236,11.281,49.634,40.342,93.311,577.81,0.031249,91.285,0.104,supercritical,CO2,C124389,carbon-dioxide,304.18,73.8,10.6,0.09433962264150944,1.0,2.8783197831978318,0.0005215836
304.18,214.87,20361.0,4.9113e-05,10.219,11.274,49.571,40.335,92.967,580.74,0.030468,91.696,0.10433,supercritical,CO2,C124389,carbon-dioxide,304.18,73.8,10.6,0.09433962264150944,1.0,2.911517615176152,0.0005205978
304.18,217.33,20399.0,4.9022e-05,10.202,11.267,49.508,40.329,92.633,583.63,0.029707,92.103,0.10466,supercritical,CO2,C124389,carbon-dioxide,304.18,73.8,10.6,0.09433962264150944,1.0,2.9448509485094854,0.0005196332
304.18,219.79,20437.0,4.8932e-05,10.185,11.261,49.447,40.323,92.307,586.49,0.028963,92.507,0.10499,supercritical,CO2,C124389,carbon-dioxide,304.18,73.8,10.6,0.09433962264150944,1.0,2.9781842818428186,0.0005186791999999999
304.18,222.25,20473.0,4.8844e-05,10.169,11.254,49.386,40.317,91.99,589.32,0.028236,92.909,0.10531,supercritical,CO2,C124389,carbon-dioxide,304.18,73.8,10.6,0.09433962264150944,1.0,3.011517615176152,0.0005177464
304.18,224.71,20510.0,4.8757e-05,10.152,11.248,49.326,40.312,91.682,592.12,0.027527,93.307,0.10564,supercritical,CO2,C124389,carbon-dioxide,304.18,73.8,10.6,0.09433962264150944,1.0,3.0448509485094855,0.0005168242