Temperature (K),Pressure (bar),Density (mol/m3),Volume (m3/mol),Internal Energy (kJ/mol),Enthalpy (kJ/mol),Entropy (J/mol*K),Cv (J/mol*K),Cp (J/mol*K),Sound Spd. (m/s),Joule-Thomson (K/bar),Viscosity (uPa*s),Therm. Cond. (W/m*K),Phase,substance,substance_id,substance_name,Tc,Pc,rhoc,Vmc,Tr,Pr,Vmr
135.77,141.18,28446.0,3.5154e-05,-2.7887,-2.2924,72.801,17.755,47.919,605.69,-0.0096515,101.85,0.080431,liquid,Ar,C7440371,argon,150.86,48.9805,13.41,0.07457121551081282,0.9000000000000001,2.882371556027399,0.0004714151400000001
135.77,142.81,28476.0,3.5117e-05,-2.7932,-2.2917,72.764,17.761,47.806,607.3,-0.010042,102.16,0.080617,liquid,Ar,C7440371,argon,150.86,48.9805,13.41,0.07457121551081282,0.9000000000000001,2.915650105654291,0.0004709189700000001
135.77,144.44,28506.0,3.5081e-05,-2.7976,-2.2909,72.728,17.766,47.695,608.89,-0.010426,102.47,0.080801,liquid,Ar,C7440371,argon,150.86,48.9805,13.41,0.07457121551081282,0.9000000000000001,2.9489286552811835,0.00047043621000000005
135.77,146.07,28535.0,3.5045e-05,-2.8019,-2.29,72.692,17.771,47.586,610.47,-0.010805,102.77,0.080985,liquid,Ar,C7440371,argon,150.86,48.9805,13.41,0.07457121551081282,0.9000000000000001,2.9822072049080757,0.00046995345000000005
135.77,147.7,28564.0,3.5009e-05,-2.8063,-2.2892,72.656,17.777,47.479,612.04,-0.011179,103.08,0.081168,liquid,Ar,C7440371,argon,150.86,48.9805,13.41,0.07457121551081282,0.9000000000000001,3.015485754534968,0.0004694706900000001
135.77,149.33,28593.0,3.4973e-05,-2.8106,-2.2883,72.621,17.783,47.374,613.6,-0.011547,103.38,0.08135,liquid,Ar,C7440371,argon,150.86,48.9805,13.41,0.07457121551081282,0.9000000000000001,3.048764304161861,0.00046898793000000005
135.77,150.96,28622.0,3.4938e-05,-2.8148,-2.2874,72.585,17.788,47.27,615.15,-0.01191,103.69,0.081531,liquid,Ar,C7440371,argon,150.86,48.9805,13.41,0.07457121551081282,0.9000000000000001,3.082042853788753,0.0004685185800000001
135.77,152.59,28651.0,3.4903e-05,-2.8191,-2.2865,72.55,17.794,47.169,616.69,-0.012268,103.99,0.081711,liquid,Ar,C7440371,argon,150.86,48.9805,13.41,0.07457121551081282,0.9000000000000001,3.115321403415645,0.00046804923000000006
135.77,154.22,28679.0,3.4869e-05,-2.8233,-2.2855,72.516,17.8,47.068,618.21,-0.012621,104.29,0.081891,liquid,Ar,C7440371,argon,150.86,48.9805,13.41,0.07457121551081282,0.9000000000000001,3.1485999530425373,0.00046759329000000007
135.77,155.85,28707.0,3.4835e-05,-2.8274,-2.2845,72.481,17.805,46.97,619.73,-0.012969,104.59,0.08207,liquid,Ar,C7440371,argon,150.86,48.9805,13.41,0.07457121551081282,0.9000000000000001,3.1818785026694294,0.0004671373500000001
135.77,157.48,28735.0,3.4801e-05,-2.8316,-2.2835,72.447,17.811,46.873,621.23,-0.013313,104.89,0.082248,liquid,Ar,C7440371,argon,150.86,48.9805,13.41,0.07457121551081282,0.9000000000000001,3.215157052296322,0.0004666814100000001
135.77,159.11,28763.0,3.4767e-05,-2.8357,-2.2825,72.412,17.817,46.777,622.73,-0.013651,105.18,0.082425,liquid,Ar,C7440371,argon,150.86,48.9805,13.41,0.07457121551081282,0.9000000000000001,3.2484356019232146,0.00046622547000000004
135.77,160.74,28790.0,3.4734e-05,-2.8398,-2.2815,72.378,17.823,46.683,624.21,-0.013986,105.48,0.082602,liquid,Ar,C7440371,argon,150.86,48.9805,13.41,0.07457121551081282,0.9000000000000001,3.2817141515501067,0.00046578294000000007
135.77,162.37,28818.0,3.4701e-05,-2.8438,-2.2804,72.345,17.828,46.59,625.69,-0.014315,105.77,0.082778,liquid,Ar,C7440371,argon,150.86,48.9805,13.41,0.07457121551081282,0.9000000000000001,3.3149927011769993,0.00046534041
135.77,164.0,28845.0,3.4668e-05,-2.8478,-2.2793,72.311,17.834,46.499,627.15,-0.014641,106.07,0.082953,liquid,Ar,C7440371,argon,150.86,48.9805,13.41,0.07457121551081282,0.9000000000000001,3.3482712508038914,0.00046489788000000004
135.77,165.63,28872.0,3.4636e-05,-2.8518,-2.2782,72.278,17.84,46.409,628.61,-0.014962,106.36,0.083127,liquid,Ar,C7440371,argon,150.86,48.9805,13.41,0.07457121551081282,0.9000000000000001,3.3815498004307836,0.00046446876
135.77,167.26,28898.0,3.4604e-05,-2.8558,-2.277,72.245,17.846,46.321,630.05,-0.015279,106.65,0.083301,liquid,Ar,C7440371,argon,150.86,48.9805,13.41,0.07457121551081282,0.9000000000000001,3.4148283500576757,0.00046403964000000007
135.77,168.89,28925.0,3.4572e-05,-2.8597,-2.2759,72.212,17.852,46.233,631.49,-0.015592,106.94,0.083474,liquid,Ar,C7440371,argon,150.86,48.9805,13.41,0.07457121551081282,0.9000000000000001,3.4481068996845683,0.00046361052
135.77,170.52,28951.0,3.4541e-05,-2.8637,-2.2747,72.179,17.858,46.147,632.92,-0.015901,107.23,0.083647,liquid,Ar,C7440371,argon,150.86,48.9805,13.41,0.07457121551081282,0.9000000000000001,3.481385449311461,0.00046319481000000007
135.77,172.15,28978.0,3.4509e-05,-2.8675,-2.2735,72.146,17.864,46.063,634.34,-0.016206,107.52,0.083818,liquid,Ar,C7440371,argon,150.86,48.9805,13.41,0.07457121551081282,0.9000000000000001,3.514663998938353,0.00046276569
135.77,173.78,29004.0,3.4478e-05,-2.8714,-2.2722,72.114,17.87,45.979,635.75,-0.016507,107.81,0.083989,liquid,Ar,C7440371,argon,150.86,48.9805,13.41,0.07457121551081282,0.9000000000000001,3.5479425485652456,0.00046234998
135.77,175.41,29030.0,3.4448e-05,-2.8752,-2.271,72.082,17.876,45.897,637.15,-0.016804,108.1,0.08416,liquid,Ar,C7440371,argon,150.86,48.9805,13.41,0.07457121551081282,0.9000000000000001,3.5812210981921377,0.00046194768000000003
135.77,177.04,29055.0,3.4417e-05,-2.879,-2.2697,72.05,17.882,45.816,638.54,-0.017098,108.39,0.084329,liquid,Ar,C7440371,argon,150.86,48.9805,13.41,0.07457121551081282,0.9000000000000001,3.61449964781903,0.00046153197
135.77,178.67,29081.0,3.4387e-05,-2.8828,-2.2684,72.018,17.888,45.736,639.92,-0.017388,108.67,0.084498,liquid,Ar,C7440371,argon,150.86,48.9805,13.41,0.07457121551081282,0.9000000000000001,3.647778197445922,0.00046112967000000004
135.77,180.3,29106.0,3.4357e-05,-2.8866,-2.2671,71.986,17.894,45.657,641.3,-0.017674,108.96,0.084667,liquid,Ar,C7440371,argon,150.86,48.9805,13.41,0.07457121551081282,0.9000000000000001,3.681056747072815,0.0004607273700000001
135.77,181.93,29132.0,3.4327e-05,-2.8903,-2.2658,71.955,17.9,45.579,642.67,-0.017958,109.24,0.084835,liquid,Ar,C7440371,argon,150.86,48.9805,13.41,0.07457121551081282,0.9000000000000001,3.714335296699707,0.00046032507
135.77,183.56,29157.0,3.4298e-05,-2.894,-2.2645,71.924,17.906,45.502,644.03,-0.018237,109.52,0.085002,liquid,Ar,C7440371,argon,150.86,48.9805,13.41,0.07457121551081282,0.9000000000000001,3.7476138463265993,0.0004599361800000001
135.77,185.19,29182.0,3.4268e-05,-2.8977,-2.2631,71.892,17.912,45.426,645.38,-0.018514,109.8,0.085168,liquid,Ar,C7440371,argon,150.86,48.9805,13.41,0.07457121551081282,0.9000000000000001,3.780892395953492,0.00045953388000000004
135.77,186.82,29206.0,3.4239e-05,-2.9014,-2.2617,71.861,17.918,45.352,646.72,-0.018787,110.09,0.085335,liquid,Ar,C7440371,argon,150.86,48.9805,13.41,0.07457121551081282,0.9000000000000001,3.814170945580384,0.0004591449900000001
135.77,188.45,29231.0,3.421e-05,-2.905,-2.2603,71.831,17.924,45.278,648.06,-0.019057,110.37,0.0855,liquid,Ar,C7440371,argon,150.86,48.9805,13.41,0.07457121551081282,0.9000000000000001,3.847449495207276,0.00045875610000000003
135.77,190.08,29255.0,3.4182e-05,-2.9086,-2.2589,71.8,17.93,45.205,649.39,-0.019323,110.65,0.085665,liquid,Ar,C7440371,argon,150.86,48.9805,13.41,0.07457121551081282,0.9000000000000001,3.880728044834169,0.00045838062000000006
135.77,191.71,29280.0,3.4153e-05,-2.9122,-2.2575,71.77,17.937,45.134,650.71,-0.019587,110.92,0.085829,liquid,Ar,C7440371,argon,150.86,48.9805,13.41,0.07457121551081282,0.9000000000000001,3.9140065944610614,0.0004579917300000001
135.77,193.34,29304.0,3.4125e-05,-2.9158,-2.256,71.739,17.943,45.063,652.03,-0.019847,111.2,0.085993,liquid,Ar,C7440371,argon,150.86,48.9805,13.41,0.07457121551081282,0.9000000000000001,3.9472851440879535,0.0004576162500000001
135.77,194.97,29328.0,3.4097e-05,-2.9194,-2.2546,71.709,17.949,44.993,653.33,-0.020105,111.48,0.086156,liquid,Ar,C7440371,argon,150.86,48.9805,13.41,0.07457121551081282,0.9000000000000001,3.9805636937148456,0.0004572407700000001
135.77,196.6,29352.0,3.4069e-05,-2.9229,-2.2531,71.679,17.955,44.924,654.63,-0.02036,111.76,0.086318,liquid,Ar,C7440371,argon,150.86,48.9805,13.41,0.07457121551081282,0.9000000000000001,4.013842243341738,0.00045686529000000007
135.77,198.23,29376.0,3.4042e-05,-2.9264,-2.2516,71.649,17.961,44.856,655.93,-0.020612,112.03,0.08648,liquid,Ar,C7440371,argon,150.86,48.9805,13.41,0.07457121551081282,0.9000000000000001,4.04712079296863,0.00045650322
135.77,199.86,29399.0,3.4015e-05,-2.9299,-2.2501,71.62,17.967,44.788,657.21,-0.020861,112.31,0.086642,liquid,Ar,C7440371,argon,150.86,48.9805,13.41,0.07457121551081282,0.9000000000000001,4.080399342595523,0.00045614115
135.77,201.49,29423.0,3.3987e-05,-2.9333,-2.2485,71.59,17.974,44.722,658.49,-0.021107,112.58,0.086803,liquid,Ar,C7440371,argon,150.86,48.9805,13.41,0.07457121551081282,0.9000000000000001,4.113677892222415,0.00045576567000000004
135.77,203.12,29446.0,3.396e-05,-2.9368,-2.247,71.561,17.98,44.656,659.77,-0.02135,112.86,0.086963,liquid,Ar,C7440371,argon,150.86,48.9805,13.41,0.07457121551081282,0.9000000000000001,4.146956441849308,0.00045540360000000005
135.77,204.75,29469.0,3.3934e-05,-2.9402,-2.2454,71.531,17.986,44.591,661.03,-0.021591,113.13,0.087123,liquid,Ar,C7440371,argon,150.86,48.9805,13.41,0.07457121551081282,0.9000000000000001,4.180234991476199,0.00045505494
135.77,206.38,29492.0,3.3907e-05,-2.9436,-2.2438,71.502,17.992,44.527,662.29,-0.021829,113.4,0.087282,liquid,Ar,C7440371,argon,150.86,48.9805,13.41,0.07457121551081282,0.9000000000000001,4.213513541103092,0.00045469287
135.77,208.01,29515.0,3.3881e-05,-2.947,-2.2423,71.473,17.998,44.464,663.54,-0.022065,113.67,0.087441,liquid,Ar,C7440371,argon,150.86,48.9805,13.41,0.07457121551081282,0.9000000000000001,4.2467920907299845,0.0004543442100000001
135.77,209.64,29538.0,3.3855e-05,-2.9504,-2.2406,71.444,18.005,44.402,664.79,-0.022298,113.94,0.087599,liquid,Ar,C7440371,argon,150.86,48.9805,13.41,0.07457121551081282,0.9000000000000001,4.280070640356876,0.00045399555000000003
135.77,211.27,29561.0,3.3829e-05,-2.9537,-2.239,71.416,18.011,44.34,666.03,-0.022528,114.22,0.087757,liquid,Ar,C7440371,argon,150.86,48.9805,13.41,0.07457121551081282,0.9000000000000001,4.31334918998377,0.00045364689
135.77,212.9,29583.0,3.3803e-05,-2.9571,-2.2374,71.387,18.017,44.279,667.27,-0.022756,114.49,0.087914,liquid,Ar,C7440371,argon,150.86,48.9805,13.41,0.07457121551081282,0.9000000000000001,4.346627739610661,0.00045329823000000004
135.77,214.53,29606.0,3.3777e-05,-2.9604,-2.2357,71.359,18.023,44.218,668.49,-0.022982,114.75,0.088071,liquid,Ar,C7440371,argon,150.86,48.9805,13.41,0.07457121551081282,0.9000000000000001,4.379906289237554,0.00045294957
135.77,216.16,29628.0,3.3752e-05,-2.9637,-2.2341,71.331,18.029,44.159,669.72,-0.023205,115.02,0.088227,liquid,Ar,C7440371,argon,150.86,48.9805,13.41,0.07457121551081282,0.9000000000000001,4.413184838864446,0.00045261432
135.77,217.79,29650.0,3.3726e-05,-2.9669,-2.2324,71.302,18.036,44.1,670.93,-0.023426,115.29,0.088383,liquid,Ar,C7440371,argon,150.86,48.9805,13.41,0.07457121551081282,0.9000000000000001,4.446463388491338,0.00045226566000000005
135.77,219.42,29673.0,3.3701e-05,-2.9702,-2.2307,71.274,18.042,44.042,672.14,-0.023645,115.56,0.088538,liquid,Ar,C7440371,argon,150.86,48.9805,13.41,0.07457121551081282,0.9000000000000001,4.479741938118231,0.00045193041000000006
135.77,221.05,29695.0,3.3676e-05,-2.9734,-2.229,71.246,18.048,43.984,673.35,-0.023862,115.83,0.088693,liquid,Ar,C7440371,argon,150.86,48.9805,13.41,0.07457121551081282,0.9000000000000001,4.513020487745123,0.00045159516000000007
135.77,222.68,29716.0,3.3651e-05,-2.9766,-2.2273,71.219,18.054,43.927,674.55,-0.024076,116.09,0.088847,liquid,Ar,C7440371,argon,150.86,48.9805,13.41,0.07457121551081282,0.9000000000000001,4.546299037372016,0.0004512599100000001
135.77,224.31,29738.0,3.3627e-05,-2.9798,-2.2256,71.191,18.061,43.871,675.74,-0.024288,116.36,0.089001,liquid,Ar,C7440371,argon,150.86,48.9805,13.41,0.07457121551081282,0.9000000000000001,4.579577586998908,0.00045093807000000006
135.77,225.94,29760.0,3.3602e-05,-2.983,-2.2238,71.164,18.067,43.815,676.93,-0.024498,116.62,0.089154,liquid,Ar,C7440371,argon,150.86,48.9805,13.41,0.07457121551081282,0.9000000000000001,4.6128561366258,0.00045060282000000006
135.77,227.57,29781.0,3.3578e-05,-2.9862,-2.2221,71.136,18.073,43.76,678.11,-0.024705,116.89,0.089307,liquid,Ar,C7440371,argon,150.86,48.9805,13.41,0.07457121551081282,0.9000000000000001,4.646134686252692,0.0004502809800000001
135.77,229.2,29803.0,3.3554e-05,-2.9893,-2.2203,71.109,18.079,43.706,679.28,-0.024911,117.15,0.08946,liquid,Ar,C7440371,argon,150.86,48.9805,13.41,0.07457121551081282,0.9000000000000001,4.679413235879585,0.00044995914000000003
135.77,230.83,29824.0,3.353e-05,-2.9925,-2.2185,71.082,18.085,43.652,680.45,-0.025114,117.42,0.089612,liquid,Ar,C7440371,argon,150.86,48.9805,13.41,0.07457121551081282,0.9000000000000001,4.712691785506477,0.0004496373
135.77,232.46,29845.0,3.3506e-05,-2.9956,-2.2167,71.055,18.092,43.599,681.62,-0.025316,117.68,0.089763,liquid,Ar,C7440371,argon,150.86,48.9805,13.41,0.07457121551081282,0.9000000000000001,4.74597033513337,0.00044931546000000005
135.77,234.09,29866.0,3.3482e-05,-2.9987,-2.2149,71.028,18.098,43.546,682.78,-0.025516,117.94,0.089914,liquid,Ar,C7440371,argon,150.86,48.9805,13.41,0.07457121551081282,0.9000000000000001,4.779248884760261,0.0004489936200000001
135.77,235.72,29887.0,3.3459e-05,-3.0018,-2.2131,71.001,18.104,43.494,683.94,-0.025713,118.2,0.090065,liquid,Ar,C7440371,argon,150.86,48.9805,13.41,0.07457121551081282,0.9000000000000001,4.812527434387154,0.00044868519000000004
135.77,237.35,29908.0,3.3435e-05,-3.0049,-2.2113,70.974,18.11,43.443,685.08,-0.025909,118.46,0.090215,liquid,Ar,C7440371,argon,150.86,48.9805,13.41,0.07457121551081282,0.9000000000000001,4.845805984014047,0.0004483633500000001
135.77,238.98,29929.0,3.3412e-05,-3.0079,-2.2094,70.948,18.117,43.392,686.23,-0.026103,118.72,0.090365,liquid,Ar,C7440371,argon,150.86,48.9805,13.41,0.07457121551081282,0.9000000000000001,4.879084533640938,0.00044805492000000004
135.77,240.61,29950.0,3.3389e-05,-3.011,-2.2076,70.921,18.123,43.342,687.37,-0.026295,118.99,0.090515,liquid,Ar,C7440371,argon,150.86,48.9805,13.41,0.07457121551081282,0.9000000000000001,4.912363083267832,0.00044774649000000005
135.77,242.24,29970.0,3.3366e-05,-3.014,-2.2057,70.895,18.129,43.292,688.5,-0.026485,119.25,0.090663,liquid,Ar,C7440371,argon,150.86,48.9805,13.41,0.07457121551081282,0.9000000000000001,4.9456416328947235,0.00044743806
135.77,243.87,29991.0,3.3343e-05,-3.017,-2.2038,70.869,18.135,43.242,689.63,-0.026673,119.5,0.090812,liquid,Ar,C7440371,argon,150.86,48.9805,13.41,0.07457121551081282,0.9000000000000001,4.978920182521616,0.0004471296300000001
135.77,245.5,30011.0,3.3321e-05,-3.02,-2.202,70.843,18.142,43.194,690.76,-0.026859,119.76,0.09096,liquid,Ar,C7440371,argon,150.86,48.9805,13.41,0.07457121551081282,0.9000000000000001,5.012198732148508,0.00044683461000000007
135.77,247.13,30032.0,3.3298e-05,-3.023,-2.2001,70.817,18.148,43.145,691.88,-0.027044,120.02,0.091108,liquid,Ar,C7440371,argon,150.86,48.9805,13.41,0.07457121551081282,0.9000000000000001,5.0454772817754,0.00044652618
135.77,248.76,30052.0,3.3276e-05,-3.0259,-2.1981,70.791,18.154,43.097,692.99,-0.027227,120.28,0.091255,liquid,Ar,C7440371,argon,150.86,48.9805,13.41,0.07457121551081282,0.9000000000000001,5.078755831402293,0.00044623116
135.77,250.39,30072.0,3.3254e-05,-3.0289,-2.1962,70.765,18.16,43.05,694.1,-0.027408,120.54,0.091402,liquid,Ar,C7440371,argon,150.86,48.9805,13.41,0.07457121551081282,0.9000000000000001,5.112034381029185,0.00044593614
135.77,252.02,30092.0,3.3231e-05,-3.0318,-2.1943,70.739,18.166,43.003,695.21,-0.027588,120.8,0.091548,liquid,Ar,C7440371,argon,150.86,48.9805,13.41,0.07457121551081282,0.9000000000000001,5.145312930656078,0.00044562771000000007
135.77,253.65,30112.0,3.3209e-05,-3.0347,-2.1924,70.713,18.173,42.957,696.31,-0.027766,121.05,0.091695,liquid,Ar,C7440371,argon,150.86,48.9805,13.41,0.07457121551081282,0.9000000000000001,5.17859148028297,0.00044533269000000006
135.77,255.28,30132.0,3.3187e-05,-3.0376,-2.1904,70.688,18.179,42.911,697.41,-0.027942,121.31,0.09184,liquid,Ar,C7440371,argon,150.86,48.9805,13.41,0.07457121551081282,0.9000000000000001,5.211870029909862,0.00044503767000000005
135.77,256.91,30152.0,3.3166e-05,-3.0405,-2.1885,70.663,18.185,42.865,698.5,-0.028117,121.56,0.091986,liquid,Ar,C7440371,argon,150.86,48.9805,13.41,0.07457121551081282,0.9000000000000001,5.245148579536755,0.00044475606000000007
135.77,258.54,30171.0,3.3144e-05,-3.0434,-2.1865,70.637,18.191,42.82,699.59,-0.02829,121.82,0.09213,liquid,Ar,C7440371,argon,150.86,48.9805,13.41,0.07457121551081282,0.9000000000000001,5.2784271291636475,0.00044446104000000006
135.77,260.17,30191.0,3.3123e-05,-3.0463,-2.1845,70.612,18.197,42.776,700.67,-0.028461,122.08,0.092275,liquid,Ar,C7440371,argon,150.86,48.9805,13.41,0.07457121551081282,0.9000000000000001,5.311705678790539,0.0004441794300000001
135.77,261.8,30210.0,3.3101e-05,-3.0491,-2.1825,70.587,18.204,42.732,701.75,-0.028631,122.33,0.092419,liquid,Ar,C7440371,argon,150.86,48.9805,13.41,0.07457121551081282,0.9000000000000001,5.344984228417432,0.00044388441000000006
135.77,263.43,30230.0,3.308e-05,-3.0519,-2.1805,70.562,18.21,42.688,702.83,-0.0288,122.58,0.092563,liquid,Ar,C7440371,argon,150.86,48.9805,13.41,0.07457121551081282,0.9000000000000001,5.378262778044324,0.0004436028000000001
135.77,265.06,30249.0,3.3059e-05,-3.0548,-2.1785,70.537,18.216,42.645,703.9,-0.028967,122.84,0.092706,liquid,Ar,C7440371,argon,150.86,48.9805,13.41,0.07457121551081282,0.9000000000000001,5.411541327671216,0.0004433211900000001
135.77,266.69,30268.0,3.3038e-05,-3.0576,-2.1765,70.512,18.222,42.602,704.96,-0.029132,123.09,0.092849,liquid,Ar,C7440371,argon,150.86,48.9805,13.41,0.07457121551081282,0.9000000000000001,5.444819877298109,0.00044303958
135.77,268.32,30287.0,3.3017e-05,-3.0604,-2.1745,70.488,18.228,42.56,706.02,-0.029296,123.34,0.092992,liquid,Ar,C7440371,argon,150.86,48.9805,13.41,0.07457121551081282,0.9000000000000001,5.478098426925,0.00044275797000000003
135.77,269.95,30307.0,3.2996e-05,-3.0632,-2.1724,70.463,18.235,42.518,707.08,-0.029459,123.6,0.093134,liquid,Ar,C7440371,argon,150.86,48.9805,13.41,0.07457121551081282,0.9000000000000001,5.511376976551893,0.00044247636000000005
135.77,271.58,30326.0,3.2976e-05,-3.0659,-2.1704,70.438,18.241,42.476,708.13,-0.02962,123.85,0.093276,liquid,Ar,C7440371,argon,150.86,48.9805,13.41,0.07457121551081282,0.9000000000000001,5.5446555261787855,0.00044220816
135.77,273.21,30344.0,3.2955e-05,-3.0687,-2.1683,70.414,18.247,42.435,709.18,-0.029779,124.1,0.093417,liquid,Ar,C7440371,argon,150.86,48.9805,13.41,0.07457121551081282,0.9000000000000001,5.577934075805677,0.00044192655
135.77,274.84,30363.0,3.2935e-05,-3.0714,-2.1663,70.39,18.253,42.394,710.23,-0.029938,124.35,0.093559,liquid,Ar,C7440371,argon,150.86,48.9805,13.41,0.07457121551081282,0.9000000000000001,5.61121262543257,0.00044165835000000006
135.77,276.47,30382.0,3.2914e-05,-3.0742,-2.1642,70.365,18.259,42.353,711.27,-0.030095,124.6,0.093699,liquid,Ar,C7440371,argon,150.86,48.9805,13.41,0.07457121551081282,0.9000000000000001,5.644491175059463,0.00044137674
135.77,278.1,30401.0,3.2894e-05,-3.0769,-2.1621,70.341,18.265,42.313,712.31,-0.03025,124.86,0.09384,liquid,Ar,C7440371,argon,150.86,48.9805,13.41,0.07457121551081282,0.9000000000000001,5.677769724686355,0.00044110854000000007
135.77,279.73,30419.0,3.2874e-05,-3.0796,-2.16,70.317,18.272,42.274,713.34,-0.030404,125.11,0.09398,liquid,Ar,C7440371,argon,150.86,48.9805,13.41,0.07457121551081282,0.9000000000000001,5.711048274313248,0.00044084034
135.77,281.36,30438.0,3.2854e-05,-3.0823,-2.1579,70.293,18.278,42.234,714.37,-0.030557,125.36,0.09412,liquid,Ar,C7440371,argon,150.86,48.9805,13.41,0.07457121551081282,0.9000000000000001,5.74432682394014,0.00044057214000000006