Temperature (K),Pressure (bar),Density (mol/m3),Volume (m3/mol),Internal Energy (kJ/mol),Enthalpy (kJ/mol),Entropy (J/mol*K),Cv (J/mol*K),Cp (J/mol*K),Sound Spd. (m/s),Joule-Thomson (K/bar),Viscosity (uPa*s),Therm. Cond. (W/m*K),Phase,substance,substance_id,substance_name,Tc,Pc,rhoc,Vmc,Tr,Pr,Vmr
316.81,154.22,6055.7,0.00016513,3.0909,5.6376,111.67,13.314,27.326,363.52,0.18957,28.559,0.0255,supercritical,Ar,C7440371,argon,150.86,48.9805,13.41,0.07457121551081282,2.1,3.1485999530425373,0.0022143933000000004
316.81,155.85,6119.0,0.00016342,3.0822,5.6291,111.56,13.322,27.386,364.05,0.1882,28.631,0.025588,supercritical,Ar,C7440371,argon,150.86,48.9805,13.41,0.07457121551081282,2.1,3.1818785026694294,0.0021914622000000004
316.81,157.48,6182.3,0.00016175,3.0735,5.6208,111.44,13.329,27.447,364.58,0.18683,28.703,0.025677,supercritical,Ar,C7440371,argon,150.86,48.9805,13.41,0.07457121551081282,2.1,3.215157052296322,0.0021690675000000004
316.81,159.11,6245.5,0.00016012,3.0648,5.6124,111.34,13.336,27.506,365.11,0.18547,28.775,0.025766,supercritical,Ar,C7440371,argon,150.86,48.9805,13.41,0.07457121551081282,2.1,3.2484356019232146,0.0021472092000000003
316.81,160.74,6308.6,0.00015851,3.0562,5.6041,111.23,13.343,27.565,365.65,0.18411,28.847,0.025854,supercritical,Ar,C7440371,argon,150.86,48.9805,13.41,0.07457121551081282,2.1,3.2817141515501067,0.0021256191
316.81,162.37,6371.6,0.00015695,3.0475,5.5959,111.12,13.35,27.624,366.19,0.18275,28.92,0.025943,supercritical,Ar,C7440371,argon,150.86,48.9805,13.41,0.07457121551081282,2.1,3.3149927011769993,0.0021046995
316.81,164.0,6434.5,0.00015541,3.0389,5.5877,111.01,13.357,27.683,366.74,0.1814,28.993,0.026032,supercritical,Ar,C7440371,argon,150.86,48.9805,13.41,0.07457121551081282,2.1,3.3482712508038914,0.0020840481000000003
316.81,165.63,6497.3,0.00015391,3.0303,5.5795,110.91,13.364,27.741,367.29,0.18006,29.066,0.026122,supercritical,Ar,C7440371,argon,150.86,48.9805,13.41,0.07457121551081282,2.1,3.3815498004307836,0.0020639331
316.81,167.26,6560.1,0.00015244,3.0217,5.5714,110.8,13.371,27.798,367.84,0.17871,29.139,0.026211,supercritical,Ar,C7440371,argon,150.86,48.9805,13.41,0.07457121551081282,2.1,3.4148283500576757,0.0020442204000000004
316.81,168.89,6622.7,0.000151,3.0131,5.5633,110.7,13.378,27.856,368.4,0.17738,29.213,0.0263,supercritical,Ar,C7440371,argon,150.86,48.9805,13.41,0.07457121551081282,2.1,3.4481068996845683,0.0020249100000000004
316.81,170.52,6685.3,0.00014958,3.0046,5.5553,110.6,13.385,27.912,368.96,0.17604,29.287,0.02639,supercritical,Ar,C7440371,argon,150.86,48.9805,13.41,0.07457121551081282,2.1,3.481385449311461,0.0020058678
316.81,172.15,6747.7,0.0001482,2.9961,5.5473,110.5,13.392,27.969,369.52,0.17472,29.361,0.026479,supercritical,Ar,C7440371,argon,150.86,48.9805,13.41,0.07457121551081282,2.1,3.514663998938353,0.0019873620000000003
316.81,173.78,6810.1,0.00014684,2.9875,5.5393,110.4,13.399,28.025,370.09,0.17339,29.435,0.026569,supercritical,Ar,C7440371,argon,150.86,48.9805,13.41,0.07457121551081282,2.1,3.5479425485652456,0.0019691244
316.81,175.41,6872.3,0.00014551,2.979,5.5314,110.3,13.405,28.08,370.66,0.17207,29.51,0.026659,supercritical,Ar,C7440371,argon,150.86,48.9805,13.41,0.07457121551081282,2.1,3.5812210981921377,0.0019512891000000004
316.81,177.04,6934.5,0.00014421,2.9706,5.5236,110.2,13.412,28.135,371.23,0.17076,29.585,0.026749,supercritical,Ar,C7440371,argon,150.86,48.9805,13.41,0.07457121551081282,2.1,3.61449964781903,0.0019338561000000003
316.81,178.67,6996.6,0.00014293,2.9621,5.5158,110.1,13.419,28.19,371.81,0.16945,29.66,0.026839,supercritical,Ar,C7440371,argon,150.86,48.9805,13.41,0.07457121551081282,2.1,3.647778197445922,0.0019166913
316.81,180.3,7058.5,0.00014167,2.9537,5.508,110.0,13.426,28.244,372.39,0.16815,29.735,0.026929,supercritical,Ar,C7440371,argon,150.86,48.9805,13.41,0.07457121551081282,2.1,3.681056747072815,0.0018997947
316.81,181.93,7120.4,0.00014044,2.9452,5.5003,109.9,13.432,28.298,372.97,0.16685,29.811,0.027019,supercritical,Ar,C7440371,argon,150.86,48.9805,13.41,0.07457121551081282,2.1,3.714335296699707,0.0018833004000000002
316.81,183.56,7182.1,0.00013924,2.9368,5.4926,109.81,13.439,28.351,373.56,0.16555,29.886,0.027109,supercritical,Ar,C7440371,argon,150.86,48.9805,13.41,0.07457121551081282,2.1,3.7476138463265993,0.0018672084000000001
316.81,185.19,7243.7,0.00013805,2.9284,5.485,109.71,13.445,28.404,374.15,0.16427,29.962,0.027199,supercritical,Ar,C7440371,argon,150.86,48.9805,13.41,0.07457121551081282,2.1,3.780892395953492,0.0018512505000000002
316.81,186.82,7305.2,0.00013689,2.9201,5.4774,109.62,13.452,28.457,374.75,0.16298,30.038,0.02729,supercritical,Ar,C7440371,argon,150.86,48.9805,13.41,0.07457121551081282,2.1,3.814170945580384,0.0018356949000000002
316.81,188.45,7366.7,0.00013575,2.9117,5.4699,109.52,13.458,28.508,375.35,0.1617,30.115,0.02738,supercritical,Ar,C7440371,argon,150.86,48.9805,13.41,0.07457121551081282,2.1,3.847449495207276,0.0018204075000000002
316.81,190.08,7427.9,0.00013463,2.9034,5.4624,109.43,13.465,28.56,375.95,0.16043,30.191,0.02747,supercritical,Ar,C7440371,argon,150.86,48.9805,13.41,0.07457121551081282,2.1,3.880728044834169,0.0018053883000000003
316.81,191.71,7489.1,0.00013353,2.8951,5.4549,109.34,13.471,28.611,376.55,0.15916,30.268,0.027561,supercritical,Ar,C7440371,argon,150.86,48.9805,13.41,0.07457121551081282,2.1,3.9140065944610614,0.0017906373000000002
316.81,193.34,7550.2,0.00013245,2.8868,5.4475,109.25,13.478,28.662,377.16,0.1579,30.345,0.027651,supercritical,Ar,C7440371,argon,150.86,48.9805,13.41,0.07457121551081282,2.1,3.9472851440879535,0.0017761545
316.81,194.97,7611.1,0.00013139,2.8785,5.4402,109.15,13.484,28.712,377.77,0.15664,30.422,0.027742,supercritical,Ar,C7440371,argon,150.86,48.9805,13.41,0.07457121551081282,2.1,3.9805636937148456,0.0017619399000000002
316.81,196.6,7671.9,0.00013035,2.8703,5.4329,109.06,13.491,28.761,378.39,0.15539,30.499,0.027833,supercritical,Ar,C7440371,argon,150.86,48.9805,13.41,0.07457121551081282,2.1,4.013842243341738,0.0017479935000000002
316.81,198.23,7732.6,0.00012932,2.8621,5.4256,108.97,13.497,28.811,379.0,0.15414,30.577,0.027923,supercritical,Ar,C7440371,argon,150.86,48.9805,13.41,0.07457121551081282,2.1,4.04712079296863,0.0017341812
316.81,199.86,7793.2,0.00012832,2.8539,5.4184,108.88,13.503,28.859,379.62,0.1529,30.654,0.028014,supercritical,Ar,C7440371,argon,150.86,48.9805,13.41,0.07457121551081282,2.1,4.080399342595523,0.0017207712000000001
316.81,201.49,7853.7,0.00012733,2.8457,5.4112,108.8,13.509,28.908,380.25,0.15166,30.732,0.028105,supercritical,Ar,C7440371,argon,150.86,48.9805,13.41,0.07457121551081282,2.1,4.113677892222415,0.0017074953
316.81,203.12,7914.0,0.00012636,2.8375,5.4041,108.71,13.516,28.955,380.87,0.15043,30.81,0.028196,supercritical,Ar,C7440371,argon,150.86,48.9805,13.41,0.07457121551081282,2.1,4.146956441849308,0.0016944876000000002
316.81,204.75,7974.2,0.0001254,2.8294,5.397,108.62,13.522,29.003,381.5,0.14921,30.889,0.028286,supercritical,Ar,C7440371,argon,150.86,48.9805,13.41,0.07457121551081282,2.1,4.180234991476199,0.0016816140000000003
316.81,206.38,8034.2,0.00012447,2.8212,5.39,108.54,13.528,29.05,382.14,0.14799,30.967,0.028377,supercritical,Ar,C7440371,argon,150.86,48.9805,13.41,0.07457121551081282,2.1,4.213513541103092,0.0016691427000000002
316.81,208.01,8094.2,0.00012355,2.8131,5.383,108.45,13.534,29.096,382.77,0.14678,31.046,0.028468,supercritical,Ar,C7440371,argon,150.86,48.9805,13.41,0.07457121551081282,2.1,4.2467920907299845,0.0016568055
316.81,209.64,8154.0,0.00012264,2.8051,5.3761,108.36,13.54,29.142,383.41,0.14557,31.124,0.028559,supercritical,Ar,C7440371,argon,150.86,48.9805,13.41,0.07457121551081282,2.1,4.280070640356876,0.0016446024000000001
316.81,211.27,8213.7,0.00012175,2.797,5.3692,108.28,13.546,29.187,384.05,0.14437,31.203,0.02865,supercritical,Ar,C7440371,argon,150.86,48.9805,13.41,0.07457121551081282,2.1,4.31334918998377,0.0016326675000000001
316.81,212.9,8273.2,0.00012087,2.789,5.3623,108.2,13.552,29.232,384.7,0.14317,31.283,0.028741,supercritical,Ar,C7440371,argon,150.86,48.9805,13.41,0.07457121551081282,2.1,4.346627739610661,0.0016208667000000001
316.81,214.53,8332.6,0.00012001,2.781,5.3555,108.11,13.558,29.277,385.34,0.14198,31.362,0.028832,supercritical,Ar,C7440371,argon,150.86,48.9805,13.41,0.07457121551081282,2.1,4.379906289237554,0.0016093341
316.81,216.16,8391.9,0.00011916,2.773,5.3488,108.03,13.564,29.321,386.0,0.14079,31.441,0.028923,supercritical,Ar,C7440371,argon,150.86,48.9805,13.41,0.07457121551081282,2.1,4.413184838864446,0.0015979356000000002
316.81,217.79,8451.0,0.00011833,2.765,5.3421,107.95,13.57,29.364,386.65,0.13961,31.521,0.029015,supercritical,Ar,C7440371,argon,150.86,48.9805,13.41,0.07457121551081282,2.1,4.446463388491338,0.0015868053000000003
316.81,219.42,8510.0,0.00011751,2.757,5.3354,107.87,13.576,29.407,387.3,0.13844,31.601,0.029106,supercritical,Ar,C7440371,argon,150.86,48.9805,13.41,0.07457121551081282,2.1,4.479741938118231,0.0015758091000000003
316.81,221.05,8568.8,0.0001167,2.7491,5.3288,107.78,13.582,29.45,387.96,0.13727,31.681,0.029197,supercritical,Ar,C7440371,argon,150.86,48.9805,13.41,0.07457121551081282,2.1,4.513020487745123,0.0015649470000000001
316.81,222.68,8627.5,0.00011591,2.7412,5.3223,107.7,13.588,29.492,388.62,0.13611,31.761,0.029288,supercritical,Ar,C7440371,argon,150.86,48.9805,13.41,0.07457121551081282,2.1,4.546299037372016,0.0015543531000000003
316.81,224.31,8686.1,0.00011513,2.7333,5.3157,107.62,13.594,29.534,389.29,0.13495,31.841,0.029379,supercritical,Ar,C7440371,argon,150.86,48.9805,13.41,0.07457121551081282,2.1,4.579577586998908,0.0015438933000000003
316.81,225.94,8744.5,0.00011436,2.7255,5.3093,107.54,13.6,29.575,389.96,0.1338,31.922,0.029471,supercritical,Ar,C7440371,argon,150.86,48.9805,13.41,0.07457121551081282,2.1,4.6128561366258,0.0015335676
316.81,227.57,8802.8,0.0001136,2.7176,5.3028,107.47,13.605,29.616,390.63,0.13266,32.002,0.029562,supercritical,Ar,C7440371,argon,150.86,48.9805,13.41,0.07457121551081282,2.1,4.646134686252692,0.0015233760000000001
316.81,229.2,8860.9,0.00011285,2.7098,5.2965,107.39,13.611,29.656,391.3,0.13152,32.083,0.029653,supercritical,Ar,C7440371,argon,150.86,48.9805,13.41,0.07457121551081282,2.1,4.679413235879585,0.0015133185000000002
316.81,230.83,8918.9,0.00011212,2.702,5.2901,107.31,13.617,29.696,391.97,0.13038,32.164,0.029744,supercritical,Ar,C7440371,argon,150.86,48.9805,13.41,0.07457121551081282,2.1,4.712691785506477,0.0015035292000000003
316.81,232.46,8976.8,0.0001114,2.6943,5.2838,107.23,13.623,29.735,392.65,0.12926,32.245,0.029836,supercritical,Ar,C7440371,argon,150.86,48.9805,13.41,0.07457121551081282,2.1,4.74597033513337,0.001493874
316.81,234.09,9034.5,0.00011069,2.6865,5.2776,107.15,13.628,29.774,393.33,0.12814,32.326,0.029927,supercritical,Ar,C7440371,argon,150.86,48.9805,13.41,0.07457121551081282,2.1,4.779248884760261,0.0014843529
316.81,235.72,9092.0,0.00010999,2.6788,5.2714,107.08,13.634,29.812,394.01,0.12702,32.408,0.030019,supercritical,Ar,C7440371,argon,150.86,48.9805,13.41,0.07457121551081282,2.1,4.812527434387154,0.0014749659
316.81,237.35,9149.4,0.0001093,2.6711,5.2652,107.0,13.64,29.85,394.7,0.12591,32.489,0.03011,supercritical,Ar,C7440371,argon,150.86,48.9805,13.41,0.07457121551081282,2.1,4.845805984014047,0.0014657130000000002
316.81,238.98,9206.7,0.00010862,2.6634,5.2591,106.93,13.645,29.888,395.38,0.12481,32.571,0.030202,supercritical,Ar,C7440371,argon,150.86,48.9805,13.41,0.07457121551081282,2.1,4.879084533640938,0.0014565942000000001
316.81,240.61,9263.7,0.00010795,2.6558,5.2531,106.85,13.651,29.925,396.07,0.12371,32.653,0.030293,supercritical,Ar,C7440371,argon,150.86,48.9805,13.41,0.07457121551081282,2.1,4.912363083267832,0.0014476095
316.81,242.24,9320.7,0.00010729,2.6481,5.2471,106.78,13.656,29.961,396.77,0.12262,32.735,0.030385,supercritical,Ar,C7440371,argon,150.86,48.9805,13.41,0.07457121551081282,2.1,4.9456416328947235,0.0014387589000000001
316.81,243.87,9377.5,0.00010664,2.6405,5.2411,106.7,13.662,29.997,397.46,0.12153,32.817,0.030476,supercritical,Ar,C7440371,argon,150.86,48.9805,13.41,0.07457121551081282,2.1,4.978920182521616,0.0014300424
316.81,245.5,9434.1,0.000106,2.6329,5.2352,106.63,13.667,30.033,398.16,0.12045,32.9,0.030568,supercritical,Ar,C7440371,argon,150.86,48.9805,13.41,0.07457121551081282,2.1,5.012198732148508,0.0014214600000000003
316.81,247.13,9490.6,0.00010537,2.6254,5.2293,106.56,13.673,30.068,398.86,0.11938,32.982,0.030659,supercritical,Ar,C7440371,argon,150.86,48.9805,13.41,0.07457121551081282,2.1,5.0454772817754,0.0014130117000000003
316.81,248.76,9546.9,0.00010475,2.6178,5.2235,106.49,13.678,30.103,399.56,0.11831,33.065,0.030751,supercritical,Ar,C7440371,argon,150.86,48.9805,13.41,0.07457121551081282,2.1,5.078755831402293,0.0014046975
316.81,250.39,9603.1,0.00010413,2.6103,5.2177,106.41,13.684,30.137,400.26,0.11725,33.148,0.030843,supercritical,Ar,C7440371,argon,150.86,48.9805,13.41,0.07457121551081282,2.1,5.112034381029185,0.0013963833
316.81,252.02,9659.1,0.00010353,2.6028,5.212,106.34,13.689,30.171,400.97,0.11619,33.231,0.030934,supercritical,Ar,C7440371,argon,150.86,48.9805,13.41,0.07457121551081282,2.1,5.145312930656078,0.0013883373000000002
316.81,253.65,9715.0,0.00010293,2.5954,5.2063,106.27,13.694,30.204,401.67,0.11514,33.314,0.031026,supercritical,Ar,C7440371,argon,150.86,48.9805,13.41,0.07457121551081282,2.1,5.17859148028297,0.0013802913000000002
316.81,255.28,9770.7,0.00010235,2.5879,5.2006,106.2,13.7,30.237,402.38,0.11409,33.398,0.031118,supercritical,Ar,C7440371,argon,150.86,48.9805,13.41,0.07457121551081282,2.1,5.211870029909862,0.0013725135
316.81,256.91,9826.2,0.00010177,2.5805,5.195,106.13,13.705,30.269,403.1,0.11306,33.481,0.031209,supercritical,Ar,C7440371,argon,150.86,48.9805,13.41,0.07457121551081282,2.1,5.245148579536755,0.0013647357000000002
316.81,258.54,9881.6,0.0001012,2.5731,5.1895,106.06,13.71,30.301,403.81,0.11202,33.565,0.031301,supercritical,Ar,C7440371,argon,150.86,48.9805,13.41,0.07457121551081282,2.1,5.2784271291636475,0.001357092
316.81,260.17,9936.8,0.00010064,2.5657,5.184,105.99,13.715,30.333,404.53,0.111,33.648,0.031393,supercritical,Ar,C7440371,argon,150.86,48.9805,13.41,0.07457121551081282,2.1,5.311705678790539,0.0013495824000000001
316.81,261.8,9991.9,0.00010008,2.5584,5.1785,105.92,13.721,30.364,405.24,0.10998,33.732,0.031485,supercritical,Ar,C7440371,argon,150.86,48.9805,13.41,0.07457121551081282,2.1,5.344984228417432,0.0013420728000000002
316.81,263.43,10047.0,9.9534e-05,2.551,5.1731,105.85,13.726,30.395,405.96,0.10896,33.817,0.031577,supercritical,Ar,C7440371,argon,150.86,48.9805,13.41,0.07457121551081282,2.1,5.378262778044324,0.0013347509400000001
316.81,265.06,10102.0,9.8995e-05,2.5437,5.1677,105.79,13.731,30.425,406.69,0.10795,33.901,0.031669,supercritical,Ar,C7440371,argon,150.86,48.9805,13.41,0.07457121551081282,2.1,5.411541327671216,0.0013275229500000001
316.81,266.69,10156.0,9.8463e-05,2.5365,5.1624,105.72,13.736,30.455,407.41,0.10695,33.985,0.031761,supercritical,Ar,C7440371,argon,150.86,48.9805,13.41,0.07457121551081282,2.1,5.444819877298109,0.00132038883
316.81,268.32,10211.0,9.7938e-05,2.5292,5.1571,105.65,13.741,30.484,408.14,0.10595,34.07,0.031853,supercritical,Ar,C7440371,argon,150.86,48.9805,13.41,0.07457121551081282,2.1,5.478098426925,0.00131334858
316.81,269.95,10265.0,9.742e-05,2.522,5.1518,105.58,13.747,30.513,408.86,0.10496,34.155,0.031945,supercritical,Ar,C7440371,argon,150.86,48.9805,13.41,0.07457121551081282,2.1,5.511376976551893,0.0013064022000000002
316.81,271.58,10319.0,9.691e-05,2.5148,5.1466,105.52,13.752,30.542,409.59,0.10397,34.239,0.032037,supercritical,Ar,C7440371,argon,150.86,48.9805,13.41,0.07457121551081282,2.1,5.5446555261787855,0.0012995631000000001
316.81,273.21,10373.0,9.6406e-05,2.5076,5.1415,105.45,13.757,30.57,410.32,0.10299,34.324,0.032129,supercritical,Ar,C7440371,argon,150.86,48.9805,13.41,0.07457121551081282,2.1,5.577934075805677,0.0012928044600000002
316.81,274.84,10427.0,9.5909e-05,2.5004,5.1364,105.39,13.762,30.598,411.06,0.10202,34.41,0.032221,supercritical,Ar,C7440371,argon,150.86,48.9805,13.41,0.07457121551081282,2.1,5.61121262543257,0.0012861396900000002
316.81,276.47,10480.0,9.5418e-05,2.4933,5.1313,105.32,13.767,30.625,411.79,0.10105,34.495,0.032313,supercritical,Ar,C7440371,argon,150.86,48.9805,13.41,0.07457121551081282,2.1,5.644491175059463,0.0012795553800000001
316.81,278.1,10534.0,9.4934e-05,2.4862,5.1263,105.26,13.772,30.652,412.53,0.10009,34.58,0.032405,supercritical,Ar,C7440371,argon,150.86,48.9805,13.41,0.07457121551081282,2.1,5.677769724686355,0.0012730649400000001
316.81,279.73,10587.0,9.4456e-05,2.4791,5.1213,105.19,13.777,30.679,413.27,0.099134,34.666,0.032497,supercritical,Ar,C7440371,argon,150.86,48.9805,13.41,0.07457121551081282,2.1,5.711048274313248,0.0012666549600000002
316.81,281.36,10640.0,9.3984e-05,2.472,5.1164,105.13,13.782,30.705,414.01,0.098183,34.752,0.032589,supercritical,Ar,C7440371,argon,150.86,48.9805,13.41,0.07457121551081282,2.1,5.74432682394014,0.00126032544
316.81,282.99,10693.0,9.3519e-05,2.465,5.1115,105.06,13.787,30.73,414.75,0.097238,34.838,0.032682,supercritical,Ar,C7440371,argon,150.86,48.9805,13.41,0.07457121551081282,2.1,5.777605373567032,0.00125408979
316.81,284.62,10746.0,9.306e-05,2.458,5.1066,105.0,13.792,30.756,415.49,0.096299,34.924,0.032774,supercritical,Ar,C7440371,argon,150.86,48.9805,13.41,0.07457121551081282,2.1,5.810883923193924,0.0012479346
316.81,286.25,10798.0,9.2606e-05,2.451,5.1018,104.94,13.797,30.781,416.23,0.095366,35.01,0.032866,supercritical,Ar,C7440371,argon,150.86,48.9805,13.41,0.07457121551081282,2.1,5.844162472820816,0.0012418464600000001
316.81,287.88,10851.0,9.2158e-05,2.444,5.0971,104.87,13.802,30.805,416.98,0.094438,35.096,0.032959,supercritical,Ar,C7440371,argon,150.86,48.9805,13.41,0.07457121551081282,2.1,5.877441022447709,0.00123583878
316.81,289.51,10903.0,9.1716e-05,2.4371,5.0923,104.81,13.807,30.829,417.73,0.093516,35.183,0.033051,supercritical,Ar,C7440371,argon,150.86,48.9805,13.41,0.07457121551081282,2.1,5.910719572074601,0.0012299115600000001
316.81,291.14,10955.0,9.128e-05,2.4301,5.0877,104.75,13.811,30.853,418.48,0.092599,35.269,0.033143,supercritical,Ar,C7440371,argon,150.86,48.9805,13.41,0.07457121551081282,2.1,5.943998121701493,0.0012240648
316.81,292.77,11007.0,9.0849e-05,2.4232,5.083,104.69,13.816,30.876,419.23,0.091689,35.356,0.033236,supercritical,Ar,C7440371,argon,150.86,48.9805,13.41,0.07457121551081282,2.1,5.977276671328386,0.00121828509
316.81,294.4,11059.0,9.0423e-05,2.4164,5.0784,104.63,13.821,30.899,419.98,0.090783,35.443,0.033328,supercritical,Ar,C7440371,argon,150.86,48.9805,13.41,0.07457121551081282,2.1,6.010555220955278,0.00121257243
316.81,296.03,11111.0,9.0003e-05,2.4095,5.0739,104.57,13.826,30.922,420.73,0.089884,35.53,0.033421,supercritical,Ar,C7440371,argon,150.86,48.9805,13.41,0.07457121551081282,2.1,6.04383377058217,0.00120694023
316.81,297.66,11162.0,8.9588e-05,2.4027,5.0694,104.51,13.831,30.944,421.49,0.08899,35.617,0.033513,supercritical,Ar,C7440371,argon,150.86,48.9805,13.41,0.07457121551081282,2.1,6.077112320209063,0.00120137508
316.81,299.29,11213.0,8.9178e-05,2.3959,5.0649,104.45,13.836,30.966,422.24,0.088102,35.705,0.033606,supercritical,Ar,C7440371,argon,150.86,48.9805,13.41,0.07457121551081282,2.1,6.110390869835956,0.0011958769800000002
316.81,300.92,11265.0,8.8773e-05,2.3891,5.0605,104.39,13.84,30.988,423.0,0.087219,35.792,0.033698,supercritical,Ar,C7440371,argon,150.86,48.9805,13.41,0.07457121551081282,2.1,6.143669419462848,0.00119044593
316.81,302.55,11316.0,8.8374e-05,2.3824,5.0561,104.33,13.845,31.009,423.76,0.086342,35.88,0.033791,supercritical,Ar,C7440371,argon,150.86,48.9805,13.41,0.07457121551081282,2.1,6.17694796908974,0.00118509534
316.81,304.18,11366.0,8.7978e-05,2.3756,5.0518,104.27,13.85,31.03,424.52,0.08547,35.967,0.033883,supercritical,Ar,C7440371,argon,150.86,48.9805,13.41,0.07457121551081282,2.1,6.210226518716633,0.0011797849800000001