Temperature (K),Pressure (bar),Density (mol/m3),Volume (m3/mol),Internal Energy (kJ/mol),Enthalpy (kJ/mol),Entropy (J/mol*K),Cv (J/mol*K),Cp (J/mol*K),Sound Spd. (m/s),Joule-Thomson (K/bar),Viscosity (uPa*s),Therm. Cond. (W/m*K),Phase,substance,substance_id,substance_name,Tc,Pc,rhoc,Vmc,Tr,Pr,Vmr
905.8,708.44,12731.0,7.8546e-05,52.314,57.879,101.96,41.953,79.661,697.78,0.16951,44.696,0.1961,supercritical,H2O,C7732185,water,647.0,220.64,17.9,0.0558659217877095,1.4,3.2108411892675854,0.0014059734
905.8,715.79,12890.0,7.7577e-05,52.227,57.78,101.79,42.021,80.013,698.85,0.16764,44.888,0.19799,supercritical,H2O,C7732185,water,647.0,220.64,17.9,0.0558659217877095,1.4,3.244153372008702,0.0013886283
905.8,723.14,13049.0,7.6632e-05,52.14,57.681,101.62,42.087,80.356,699.95,0.16578,45.08,0.19989,supercritical,H2O,C7732185,water,647.0,220.64,17.9,0.0558659217877095,1.4,3.277465554749819,0.0013717127999999998
905.8,730.49,13208.0,7.571e-05,52.053,57.584,101.45,42.151,80.692,701.08,0.16393,45.273,0.20179,supercritical,H2O,C7732185,water,647.0,220.64,17.9,0.0558659217877095,1.4,3.3107777374909357,0.001355209
905.8,737.83,13367.0,7.4811e-05,51.967,57.487,101.28,42.215,81.019,702.26,0.1621,45.467,0.2037,supercritical,H2O,C7732185,water,647.0,220.64,17.9,0.0558659217877095,1.4,3.3440445975344457,0.0013391168999999999
905.8,745.18,13526.0,7.3933e-05,51.882,57.391,101.11,42.277,81.337,703.47,0.16027,45.662,0.20562,supercritical,H2O,C7732185,water,647.0,220.64,17.9,0.0558659217877095,1.4,3.377356780275562,0.0013234007
905.8,752.53,13684.0,7.3077e-05,51.796,57.295,100.95,42.338,81.646,704.71,0.15845,45.857,0.20754,supercritical,H2O,C7732185,water,647.0,220.64,17.9,0.0558659217877095,1.4,3.4106689630166787,0.0013080783
905.8,759.88,13843.0,7.2241e-05,51.711,57.201,100.79,42.398,81.947,706.0,0.15664,46.053,0.20947,supercritical,H2O,C7732185,water,647.0,220.64,17.9,0.0558659217877095,1.4,3.4439811457577956,0.0012931139
905.8,767.23,14001.0,7.1426e-05,51.627,57.107,100.62,42.456,82.238,707.32,0.15484,46.249,0.2114,supercritical,H2O,C7732185,water,647.0,220.64,17.9,0.0558659217877095,1.4,3.4772933284989125,0.0012785254
905.8,774.58,14158.0,7.063e-05,51.543,57.014,100.46,42.514,82.521,708.67,0.15306,46.446,0.21333,supercritical,H2O,C7732185,water,647.0,220.64,17.9,0.0558659217877095,1.4,3.5106055112400294,0.001264277
905.8,781.92,14316.0,6.9853e-05,51.459,56.921,100.3,42.57,82.794,710.06,0.15129,46.643,0.21527,supercritical,H2O,C7732185,water,647.0,220.64,17.9,0.0558659217877095,1.4,3.543872371283539,0.0012503686999999998
905.8,789.27,14473.0,6.9094e-05,51.376,56.83,100.15,42.624,83.058,711.49,0.14952,46.841,0.21721,supercritical,H2O,C7732185,water,647.0,220.64,17.9,0.0558659217877095,1.4,3.577184554024656,0.0012367825999999998
905.8,796.62,14630.0,6.8353e-05,51.294,56.739,99.99,42.678,83.313,712.95,0.14778,47.039,0.21915,supercritical,H2O,C7732185,water,647.0,220.64,17.9,0.0558659217877095,1.4,3.6104967367657728,0.0012235186999999998
905.8,803.97,14786.0,6.763e-05,51.211,56.649,99.836,42.73,83.559,714.45,0.14604,47.237,0.22109,supercritical,H2O,C7732185,water,647.0,220.64,17.9,0.0558659217877095,1.4,3.6438089195068892,0.001210577
905.8,811.32,14942.0,6.6924e-05,51.13,56.559,99.683,42.781,83.795,715.98,0.14432,47.435,0.22303,supercritical,H2O,C7732185,water,647.0,220.64,17.9,0.0558659217877095,1.4,3.677121102248006,0.0011979395999999998
905.8,818.66,15098.0,6.6234e-05,51.049,56.471,99.531,42.831,84.022,717.54,0.14261,47.634,0.22498,supercritical,H2O,C7732185,water,647.0,220.64,17.9,0.0558659217877095,1.4,3.7103879622915157,0.0011855886
905.8,826.01,15253.0,6.556e-05,50.968,56.383,99.381,42.88,84.24,719.14,0.14091,47.833,0.22692,supercritical,H2O,C7732185,water,647.0,220.64,17.9,0.0558659217877095,1.4,3.7437001450326326,0.001173524
905.8,833.36,15408.0,6.4902e-05,50.888,56.296,99.232,42.928,84.449,720.78,0.13923,48.032,0.22886,supercritical,H2O,C7732185,water,647.0,220.64,17.9,0.0558659217877095,1.4,3.7770123277737495,0.0011617457999999999
905.8,840.71,15562.0,6.4259e-05,50.808,56.21,99.085,42.975,84.649,722.44,0.13756,48.231,0.2308,supercritical,H2O,C7732185,water,647.0,220.64,17.9,0.0558659217877095,1.4,3.8103245105148664,0.0011502360999999998
905.8,848.06,15716.0,6.363e-05,50.729,56.125,98.939,43.02,84.84,724.14,0.13591,48.43,0.23274,supercritical,H2O,C7732185,water,647.0,220.64,17.9,0.0558659217877095,1.4,3.8436366932559825,0.001138977
905.8,855.41,15869.0,6.3016e-05,50.651,56.041,98.794,43.065,85.021,725.87,0.13427,48.629,0.23468,supercritical,H2O,C7732185,water,647.0,220.64,17.9,0.0558659217877095,1.4,3.8769488759970994,0.0011279863999999998
905.8,862.75,16021.0,6.2416e-05,50.573,55.958,98.651,43.108,85.194,727.64,0.13264,48.829,0.23662,supercritical,H2O,C7732185,water,647.0,220.64,17.9,0.0558659217877095,1.4,3.9102157360406093,0.0011172463999999998
905.8,870.1,16173.0,6.183e-05,50.495,55.875,98.51,43.15,85.358,729.43,0.13103,49.028,0.23855,supercritical,H2O,C7732185,water,647.0,220.64,17.9,0.0558659217877095,1.4,3.9435279187817263,0.0011067569999999999
905.8,877.45,16325.0,6.1257e-05,50.418,55.793,98.37,43.192,85.513,731.26,0.12943,49.227,0.24048,supercritical,H2O,C7732185,water,647.0,220.64,17.9,0.0558659217877095,1.4,3.976840101522843,0.0010965003
905.8,884.8,16475.0,6.0696e-05,50.342,55.712,98.231,43.232,85.66,733.11,0.12785,49.425,0.24241,supercritical,H2O,C7732185,water,647.0,220.64,17.9,0.0558659217877095,1.4,4.01015228426396,0.0010864584
905.8,892.15,16625.0,6.0149e-05,50.266,55.632,98.093,43.271,85.798,735.0,0.12629,49.624,0.24433,supercritical,H2O,C7732185,water,647.0,220.64,17.9,0.0558659217877095,1.4,4.043464467005077,0.0010766671
905.8,899.5,16775.0,5.9613e-05,50.191,55.553,97.957,43.31,85.927,736.92,0.12474,49.822,0.24625,supercritical,H2O,C7732185,water,647.0,220.64,17.9,0.0558659217877095,1.4,4.0767766497461935,0.0010670726999999999
905.8,906.84,16924.0,5.9089e-05,50.116,55.475,97.823,43.347,86.049,738.86,0.1232,50.021,0.24816,supercritical,H2O,C7732185,water,647.0,220.64,17.9,0.0558659217877095,1.4,4.110043509789703,0.0010576931
905.8,914.19,17072.0,5.8577e-05,50.042,55.397,97.689,43.383,86.162,740.84,0.12168,50.219,0.25007,supercritical,H2O,C7732185,water,647.0,220.64,17.9,0.0558659217877095,1.4,4.14335569253082,0.0010485282999999998
905.8,921.54,17219.0,5.8076e-05,49.969,55.321,97.558,43.419,86.268,742.84,0.12018,50.416,0.25197,supercritical,H2O,C7732185,water,647.0,220.64,17.9,0.0558659217877095,1.4,4.176667875271936,0.0010395603999999998
905.8,928.89,17365.0,5.7586e-05,49.896,55.245,97.427,43.453,86.365,744.87,0.11869,50.614,0.25387,supercritical,H2O,C7732185,water,647.0,220.64,17.9,0.0558659217877095,1.4,4.209980058013053,0.0010307894
905.8,936.24,17511.0,5.7107e-05,49.823,55.17,97.298,43.487,86.456,746.92,0.11722,50.81,0.25576,supercritical,H2O,C7732185,water,647.0,220.64,17.9,0.0558659217877095,1.4,4.24329224075417,0.0010222153
905.8,943.59,17656.0,5.6638e-05,49.752,55.096,97.17,43.52,86.538,749.01,0.11577,51.007,0.25764,supercritical,H2O,C7732185,water,647.0,220.64,17.9,0.0558659217877095,1.4,4.276604423495287,0.0010138202
905.8,950.93,17800.0,5.6179e-05,49.68,55.023,97.043,43.552,86.614,751.11,0.11433,51.203,0.25952,supercritical,H2O,C7732185,water,647.0,220.64,17.9,0.0558659217877095,1.4,4.309871283538796,0.0010056040999999998
905.8,958.28,17944.0,5.573e-05,49.61,54.95,96.918,43.583,86.682,753.25,0.11291,51.399,0.26139,supercritical,H2O,C7732185,water,647.0,220.64,17.9,0.0558659217877095,1.4,4.343183466279913,0.000997567
905.8,965.63,18086.0,5.5291e-05,49.54,54.879,96.794,43.614,86.744,755.4,0.1115,51.594,0.26325,supercritical,H2O,C7732185,water,647.0,220.64,17.9,0.0558659217877095,1.4,4.37649564902103,0.0009897089
905.8,972.98,18228.0,5.4861e-05,49.47,54.808,96.671,43.643,86.799,757.59,0.11011,51.789,0.26511,supercritical,H2O,C7732185,water,647.0,220.64,17.9,0.0558659217877095,1.4,4.409807831762147,0.0009820119
905.8,980.33,18369.0,5.444e-05,49.401,54.738,96.55,43.672,86.847,759.79,0.10873,51.983,0.26696,supercritical,H2O,C7732185,water,647.0,220.64,17.9,0.0558659217877095,1.4,4.443120014503264,0.0009744759999999999
905.8,987.68,18509.0,5.4028e-05,49.333,54.669,96.43,43.7,86.889,762.02,0.10738,52.177,0.2688,supercritical,H2O,C7732185,water,647.0,220.64,17.9,0.0558659217877095,1.4,4.47643219724438,0.0009671011999999999
905.8,995.02,18648.0,5.3625e-05,49.266,54.601,96.311,43.728,86.925,764.27,0.10603,52.37,0.27063,supercritical,H2O,C7732185,water,647.0,220.64,17.9,0.0558659217877095,1.4,4.50969905728789,0.0009598874999999999
905.8,1002.4,18786.0,5.323e-05,49.198,54.534,96.193,43.754,86.955,766.54,0.10471,52.563,0.27246,supercritical,H2O,C7732185,water,647.0,220.64,17.9,0.0558659217877095,1.4,4.543147208121828,0.0009528169999999999
905.8,1009.7,18924.0,5.2843e-05,49.132,54.467,96.077,43.78,86.979,768.83,0.1034,52.755,0.27427,supercritical,H2O,C7732185,water,647.0,220.64,17.9,0.0558659217877095,1.4,4.576232777374909,0.0009458897
905.8,1017.1,19061.0,5.2464e-05,49.066,54.402,95.962,43.806,86.998,771.14,0.1021,52.947,0.27608,supercritical,H2O,C7732185,water,647.0,220.64,17.9,0.0558659217877095,1.4,4.609771573604061,0.0009391055999999999
905.8,1024.4,19196.0,5.2093e-05,49.0,54.337,95.848,43.83,87.011,773.47,0.10083,53.138,0.27788,supercritical,H2O,C7732185,water,647.0,220.64,17.9,0.0558659217877095,1.4,4.642857142857143,0.0009324647
905.8,1031.8,19331.0,5.1729e-05,48.936,54.273,95.735,43.854,87.019,775.82,0.099563,53.328,0.27967,supercritical,H2O,C7732185,water,647.0,220.64,17.9,0.0558659217877095,1.4,4.676395939086294,0.0009259491
905.8,1039.1,19465.0,5.1373e-05,48.871,54.21,95.623,43.878,87.022,778.19,0.098317,53.518,0.28145,supercritical,H2O,C7732185,water,647.0,220.64,17.9,0.0558659217877095,1.4,4.709481508339376,0.0009195766999999999
905.8,1046.5,19599.0,5.1024e-05,48.808,54.147,95.513,43.901,87.02,780.57,0.097087,53.707,0.28323,supercritical,H2O,C7732185,water,647.0,220.64,17.9,0.0558659217877095,1.4,4.743020304568528,0.0009133295999999999
905.8,1053.8,19731.0,5.0682e-05,48.745,54.085,95.403,43.923,87.014,782.98,0.095872,53.895,0.28499,supercritical,H2O,C7732185,water,647.0,220.64,17.9,0.0558659217877095,1.4,4.77610587382161,0.0009072078
905.8,1061.2,19862.0,5.0347e-05,48.682,54.025,95.295,43.945,87.003,785.4,0.094673,54.083,0.28674,supercritical,H2O,C7732185,water,647.0,220.64,17.9,0.0558659217877095,1.4,4.809644670050762,0.0009012112999999998
905.8,1068.5,19993.0,5.0018e-05,48.62,53.964,95.188,43.966,86.988,787.83,0.09349,54.27,0.28849,supercritical,H2O,C7732185,water,647.0,220.64,17.9,0.0558659217877095,1.4,4.842730239303844,0.0008953222
905.8,1075.9,20122.0,4.9696e-05,48.558,53.905,95.082,43.987,86.968,790.28,0.092322,54.457,0.29023,supercritical,H2O,C7732185,water,647.0,220.64,17.9,0.0558659217877095,1.4,4.876269035532996,0.0008895584
905.8,1083.2,20251.0,4.9381e-05,48.497,53.846,94.977,44.007,86.945,792.75,0.091169,54.642,0.29195,supercritical,H2O,C7732185,water,647.0,220.64,17.9,0.0558659217877095,1.4,4.909354604786078,0.0008839198999999999
905.8,1090.6,20379.0,4.9071e-05,48.437,53.789,94.873,44.026,86.918,795.22,0.090032,54.827,0.29367,supercritical,H2O,C7732185,water,647.0,220.64,17.9,0.0558659217877095,1.4,4.942893401015228,0.0008783708999999999
905.8,1097.9,20506.0,4.8767e-05,48.377,53.731,94.77,44.046,86.887,797.72,0.088909,55.012,0.29538,supercritical,H2O,C7732185,water,647.0,220.64,17.9,0.0558659217877095,1.4,4.9759789702683115,0.0008729293
905.8,1105.2,20632.0,4.8469e-05,48.318,53.675,94.669,44.064,86.852,800.22,0.087802,55.195,0.29708,supercritical,H2O,C7732185,water,647.0,220.64,17.9,0.0558659217877095,1.4,5.009064539521392,0.0008675950999999999
905.8,1112.6,20757.0,4.8177e-05,48.259,53.619,94.568,44.082,86.815,802.74,0.08671,55.378,0.29877,supercritical,H2O,C7732185,water,647.0,220.64,17.9,0.0558659217877095,1.4,5.0426033357505435,0.0008623683
905.8,1119.9,20881.0,4.7891e-05,48.201,53.564,94.468,44.1,86.774,805.27,0.085632,55.561,0.30045,supercritical,H2O,C7732185,water,647.0,220.64,17.9,0.0558659217877095,1.4,5.075688905003626,0.0008572488999999999
905.8,1127.3,21004.0,4.7609e-05,48.143,53.51,94.37,44.118,86.73,807.81,0.084569,55.742,0.30212,supercritical,H2O,C7732185,water,647.0,220.64,17.9,0.0558659217877095,1.4,5.109227701232777,0.0008522011
905.8,1134.6,21127.0,4.7334e-05,48.086,53.457,94.272,44.135,86.683,810.36,0.08352,55.923,0.30378,supercritical,H2O,C7732185,water,647.0,220.64,17.9,0.0558659217877095,1.4,5.142313270485859,0.0008472785999999999
905.8,1142.0,21248.0,4.7063e-05,48.029,53.404,94.176,44.151,86.634,812.92,0.082486,56.103,0.30544,supercritical,H2O,C7732185,water,647.0,220.64,17.9,0.0558659217877095,1.4,5.175852066715011,0.0008424277
905.8,1149.3,21369.0,4.6797e-05,47.973,53.352,94.08,44.167,86.582,815.49,0.081465,56.282,0.30708,supercritical,H2O,C7732185,water,647.0,220.64,17.9,0.0558659217877095,1.4,5.208937635968093,0.0008376662999999999
905.8,1156.7,21489.0,4.6536e-05,47.917,53.3,93.985,44.183,86.527,818.07,0.080459,56.461,0.30871,supercritical,H2O,C7732185,water,647.0,220.64,17.9,0.0558659217877095,1.4,5.242476432197245,0.0008329944
905.8,1164.0,21608.0,4.628e-05,47.862,53.249,93.891,44.199,86.47,820.66,0.079467,56.639,0.31033,supercritical,H2O,C7732185,water,647.0,220.64,17.9,0.0558659217877095,1.4,5.275562001450327,0.0008284119999999999
905.8,1171.4,21726.0,4.6028e-05,47.807,53.199,93.799,44.214,86.411,823.25,0.078488,56.816,0.31195,supercritical,H2O,C7732185,water,647.0,220.64,17.9,0.0558659217877095,1.4,5.309100797679479,0.0008239012
905.8,1178.7,21843.0,4.5782e-05,47.753,53.15,93.707,44.228,86.349,825.86,0.077523,56.993,0.31355,supercritical,H2O,C7732185,water,647.0,220.64,17.9,0.0558659217877095,1.4,5.342186366932561,0.0008194978
905.8,1186.1,21959.0,4.5539e-05,47.699,53.101,93.616,44.243,86.286,828.47,0.076571,57.169,0.31515,supercritical,H2O,C7732185,water,647.0,220.64,17.9,0.0558659217877095,1.4,5.375725163161711,0.0008151481
905.8,1193.4,22075.0,4.5301e-05,47.646,53.052,93.526,44.257,86.221,831.08,0.075633,57.344,0.31674,supercritical,H2O,C7732185,water,647.0,220.64,17.9,0.0558659217877095,1.4,5.4088107324147945,0.0008108878999999999
905.8,1200.8,22189.0,4.5067e-05,47.593,53.005,93.436,44.271,86.154,833.71,0.074708,57.518,0.31832,supercritical,H2O,C7732185,water,647.0,220.64,17.9,0.0558659217877095,1.4,5.442349528643945,0.0008066992999999999
905.8,1208.1,22303.0,4.4837e-05,47.541,52.958,93.348,44.284,86.085,836.33,0.073795,57.692,0.31988,supercritical,H2O,C7732185,water,647.0,220.64,17.9,0.0558659217877095,1.4,5.4754350978970265,0.0008025822999999999
905.8,1215.5,22416.0,4.4611e-05,47.489,52.911,93.261,44.298,86.015,838.97,0.072896,57.864,0.32144,supercritical,H2O,C7732185,water,647.0,220.64,17.9,0.0558659217877095,1.4,5.5089738941261785,0.0007985368999999998
905.8,1222.8,22528.0,4.4389e-05,47.438,52.866,93.174,44.31,85.943,841.6,0.072008,58.037,0.32299,supercritical,H2O,C7732185,water,647.0,220.64,17.9,0.0558659217877095,1.4,5.54205946337926,0.0007945630999999999
905.8,1230.2,22639.0,4.4171e-05,47.387,52.82,93.088,44.323,85.87,844.25,0.071134,58.208,0.32454,supercritical,H2O,C7732185,water,647.0,220.64,17.9,0.0558659217877095,1.4,5.575598259608412,0.0007906609
905.8,1237.5,22750.0,4.3956e-05,47.336,52.776,93.003,44.336,85.796,846.89,0.070272,58.379,0.32607,supercritical,H2O,C7732185,water,647.0,220.64,17.9,0.0558659217877095,1.4,5.608683828861494,0.0007868123999999999
905.8,1244.9,22860.0,4.3745e-05,47.286,52.732,92.919,44.348,85.72,849.54,0.069421,58.549,0.32759,supercritical,H2O,C7732185,water,647.0,220.64,17.9,0.0558659217877095,1.4,5.642222625090646,0.0007830355
905.8,1252.2,22968.0,4.3538e-05,47.237,52.688,92.836,44.36,85.643,852.19,0.068583,58.718,0.32911,supercritical,H2O,C7732185,water,647.0,220.64,17.9,0.0558659217877095,1.4,5.675308194343728,0.0007793302
905.8,1259.6,23076.0,4.3334e-05,47.187,52.646,92.753,44.371,85.566,854.85,0.067756,58.887,0.33061,supercritical,H2O,C7732185,water,647.0,220.64,17.9,0.0558659217877095,1.4,5.708846990572879,0.0007756786
905.8,1266.9,23184.0,4.3134e-05,47.139,52.603,92.671,44.383,85.487,857.51,0.066942,59.055,0.33211,supercritical,H2O,C7732185,water,647.0,220.64,17.9,0.0558659217877095,1.4,5.741932559825962,0.0007720985999999999
905.8,1274.3,23290.0,4.2937e-05,47.09,52.561,92.59,44.394,85.407,860.17,0.066138,59.222,0.3336,supercritical,H2O,C7732185,water,647.0,220.64,17.9,0.0558659217877095,1.4,5.775471356055113,0.0007685722999999999
905.8,1281.6,23396.0,4.2743e-05,47.042,52.52,92.51,44.405,85.327,862.83,0.065346,59.389,0.33508,supercritical,H2O,C7732185,water,647.0,220.64,17.9,0.0558659217877095,1.4,5.808556925308194,0.0007650997
905.8,1289.0,23501.0,4.2552e-05,46.995,52.48,92.43,44.416,85.245,865.49,0.064565,59.555,0.33655,supercritical,H2O,C7732185,water,647.0,220.64,17.9,0.0558659217877095,1.4,5.842095721537346,0.0007616808
905.8,1296.3,23605.0,4.2364e-05,46.948,52.439,92.352,44.426,85.164,868.15,0.063795,59.72,0.33802,supercritical,H2O,C7732185,water,647.0,220.64,17.9,0.0558659217877095,1.4,5.875181290790428,0.0007583156
905.8,1303.7,23708.0,4.218e-05,46.901,52.4,92.274,44.437,85.081,870.82,0.063036,59.885,0.33948,supercritical,H2O,C7732185,water,647.0,220.64,17.9,0.0558659217877095,1.4,5.90872008701958,0.0007550219999999999
905.8,1311.0,23811.0,4.1998e-05,46.855,52.36,92.196,44.447,84.998,873.48,0.062287,60.049,0.34092,supercritical,H2O,C7732185,water,647.0,220.64,17.9,0.0558659217877095,1.4,5.9418056562726616,0.0007517642
905.8,1318.4,23913.0,4.1819e-05,46.809,52.322,92.119,44.457,84.914,876.14,0.061549,60.212,0.34236,supercritical,H2O,C7732185,water,647.0,220.64,17.9,0.0558659217877095,1.4,5.975344452501814,0.0007485600999999999
905.8,1325.7,24014.0,4.1643e-05,46.763,52.284,92.043,44.467,84.83,878.81,0.060821,60.374,0.3438,supercritical,H2O,C7732185,water,647.0,220.64,17.9,0.0558659217877095,1.4,6.008430021754895,0.0007454097
905.8,1333.0,24114.0,4.1469e-05,46.718,52.246,91.968,44.477,84.746,881.47,0.060103,60.536,0.34522,supercritical,H2O,C7732185,water,647.0,220.64,17.9,0.0558659217877095,1.4,6.041515591007977,0.0007422951
905.8,1340.4,24214.0,4.1299e-05,46.673,52.209,91.894,44.486,84.661,884.13,0.059396,60.698,0.34664,supercritical,H2O,C7732185,water,647.0,220.64,17.9,0.0558659217877095,1.4,6.075054387237129,0.0007392521
905.8,1347.7,24313.0,4.1131e-05,46.629,52.172,91.82,44.496,84.576,886.8,0.058698,60.858,0.34804,supercritical,H2O,C7732185,water,647.0,220.64,17.9,0.0558659217877095,1.4,6.108139956490211,0.0007362449
905.8,1355.1,24411.0,4.0965e-05,46.585,52.136,91.746,44.505,84.49,889.46,0.058009,61.018,0.34945,supercritical,H2O,C7732185,water,647.0,220.64,17.9,0.0558659217877095,1.4,6.141678752719362,0.0007332735
905.8,1362.4,24509.0,4.0802e-05,46.541,52.1,91.674,44.514,84.405,892.11,0.057331,61.178,0.35084,supercritical,H2O,C7732185,water,647.0,220.64,17.9,0.0558659217877095,1.4,6.174764321972445,0.0007303558
905.8,1369.8,24605.0,4.0642e-05,46.498,52.065,91.602,44.523,84.319,894.77,0.056662,61.336,0.35222,supercritical,H2O,C7732185,water,647.0,220.64,17.9,0.0558659217877095,1.4,6.208303118201596,0.0007274918
905.8,1377.1,24702.0,4.0483e-05,46.455,52.03,91.53,44.532,84.233,897.42,0.056002,61.494,0.3536,supercritical,H2O,C7732185,water,647.0,220.64,17.9,0.0558659217877095,1.4,6.241388687454677,0.0007246456999999999
905.8,1384.5,24797.0,4.0328e-05,46.412,51.995,91.459,44.541,84.147,900.08,0.055351,61.652,0.35497,supercritical,H2O,C7732185,water,647.0,220.64,17.9,0.0558659217877095,1.4,6.274927483683829,0.0007218711999999999
905.8,1391.8,24892.0,4.0174e-05,46.37,51.961,91.389,44.549,84.06,902.73,0.054709,61.809,0.35634,supercritical,H2O,C7732185,water,647.0,220.64,17.9,0.0558659217877095,1.4,6.308013052936911,0.0007191146
905.8,1399.2,24986.0,4.0023e-05,46.328,51.928,91.32,44.558,83.974,905.37,0.054075,61.965,0.3577,supercritical,H2O,C7732185,water,647.0,220.64,17.9,0.0558659217877095,1.4,6.341551849166063,0.0007164116999999999