Temperature (K),Pressure (bar),Density (mol/m3),Volume (m3/mol),Internal Energy (kJ/mol),Enthalpy (kJ/mol),Entropy (J/mol*K),Cv (J/mol*K),Cp (J/mol*K),Sound Spd. (m/s),Joule-Thomson (K/bar),Viscosity (uPa*s),Therm. Cond. (W/m*K),Phase,substance,substance_id,substance_name,Tc,Pc,rhoc,Vmc,Tr,Pr,Vmr
638.78,674.58,10883.0,9.189e-05,27.684,33.883,93.677,42.366,60.598,539.62,0.021244,47.858,0.071743,supercritical,CO2,C124389,carbon-dioxide,304.18,73.8,10.6,0.09433962264150944,2.1,9.140650406504067,0.0009740339999999999
638.78,677.04,10910.0,9.166e-05,27.674,33.88,93.636,42.371,60.611,540.46,0.020962,47.953,0.071851,supercritical,CO2,C124389,carbon-dioxide,304.18,73.8,10.6,0.09433962264150944,2.1,9.173983739837398,0.0009715959999999999
638.78,679.5,10937.0,9.1431e-05,27.664,33.877,93.596,42.377,60.623,541.29,0.020682,48.048,0.071959,supercritical,CO2,C124389,carbon-dioxide,304.18,73.8,10.6,0.09433962264150944,2.1,9.207317073170731,0.0009691686
638.78,681.96,10964.0,9.1204e-05,27.654,33.874,93.556,42.382,60.635,542.13,0.020404,48.143,0.072066,supercritical,CO2,C124389,carbon-dioxide,304.18,73.8,10.6,0.09433962264150944,2.1,9.240650406504066,0.0009667623999999999
638.78,684.42,10992.0,9.0978e-05,27.644,33.871,93.517,42.387,60.647,542.96,0.020127,48.238,0.072174,supercritical,CO2,C124389,carbon-dioxide,304.18,73.8,10.6,0.09433962264150944,2.1,9.273983739837398,0.0009643667999999999
638.78,686.88,11019.0,9.0755e-05,27.634,33.868,93.477,42.392,60.659,543.8,0.019852,48.333,0.072281,supercritical,CO2,C124389,carbon-dioxide,304.18,73.8,10.6,0.09433962264150944,2.1,9.307317073170733,0.0009620029999999999
638.78,689.33,11046.0,9.0533e-05,27.624,33.865,93.438,42.397,60.671,544.63,0.019578,48.429,0.072388,supercritical,CO2,C124389,carbon-dioxide,304.18,73.8,10.6,0.09433962264150944,2.1,9.340514905149053,0.0009596497999999999
638.78,691.79,11073.0,9.0313e-05,27.614,33.862,93.398,42.401,60.683,545.47,0.019306,48.524,0.072495,supercritical,CO2,C124389,carbon-dioxide,304.18,73.8,10.6,0.09433962264150944,2.1,9.373848238482385,0.0009573177999999999
638.78,694.25,11099.0,9.0095e-05,27.604,33.859,93.359,42.406,60.694,546.3,0.019036,48.619,0.072602,supercritical,CO2,C124389,carbon-dioxide,304.18,73.8,10.6,0.09433962264150944,2.1,9.407181571815718,0.0009550069999999999
638.78,696.71,11126.0,8.9878e-05,27.594,33.856,93.32,42.411,60.705,547.14,0.018767,48.715,0.072709,supercritical,CO2,C124389,carbon-dioxide,304.18,73.8,10.6,0.09433962264150944,2.1,9.440514905149053,0.0009527067999999998
638.78,699.17,11153.0,8.9663e-05,27.585,33.854,93.281,42.416,60.717,547.97,0.0185,48.81,0.072815,supercritical,CO2,C124389,carbon-dioxide,304.18,73.8,10.6,0.09433962264150944,2.1,9.473848238482384,0.0009504278
638.78,701.63,11179.0,8.945e-05,27.575,33.851,93.242,42.421,60.728,548.81,0.018234,48.906,0.072921,supercritical,CO2,C124389,carbon-dioxide,304.18,73.8,10.6,0.09433962264150944,2.1,9.50718157181572,0.00094817
638.78,704.08,11206.0,8.9238e-05,27.565,33.848,93.204,42.426,60.739,549.64,0.01797,49.001,0.073028,supercritical,CO2,C124389,carbon-dioxide,304.18,73.8,10.6,0.09433962264150944,2.1,9.54037940379404,0.0009459227999999999
638.78,706.54,11232.0,8.9028e-05,27.555,33.845,93.165,42.431,60.75,550.48,0.017707,49.097,0.073134,supercritical,CO2,C124389,carbon-dioxide,304.18,73.8,10.6,0.09433962264150944,2.1,9.573712737127371,0.0009436968
638.78,709.0,11259.0,8.882e-05,27.545,33.843,93.127,42.436,60.761,551.31,0.017446,49.192,0.073239,supercritical,CO2,C124389,carbon-dioxide,304.18,73.8,10.6,0.09433962264150944,2.1,9.607046070460704,0.0009414919999999998
638.78,711.46,11285.0,8.8613e-05,27.536,33.84,93.089,42.441,60.771,552.15,0.017186,49.288,0.073345,supercritical,CO2,C124389,carbon-dioxide,304.18,73.8,10.6,0.09433962264150944,2.1,9.64037940379404,0.0009392977999999999
638.78,713.92,11311.0,8.8408e-05,27.526,33.838,93.051,42.446,60.782,552.98,0.016928,49.384,0.073451,supercritical,CO2,C124389,carbon-dioxide,304.18,73.8,10.6,0.09433962264150944,2.1,9.67371273712737,0.0009371248
638.78,716.38,11337.0,8.8204e-05,27.516,33.835,93.013,42.451,60.792,553.82,0.016671,49.479,0.073556,supercritical,CO2,C124389,carbon-dioxide,304.18,73.8,10.6,0.09433962264150944,2.1,9.707046070460706,0.0009349623999999999
638.78,718.83,11363.0,8.8002e-05,27.507,33.833,92.975,42.455,60.803,554.65,0.016416,49.575,0.073661,supercritical,CO2,C124389,carbon-dioxide,304.18,73.8,10.6,0.09433962264150944,2.1,9.740243902439026,0.0009328212
638.78,721.29,11389.0,8.7802e-05,27.497,33.83,92.937,42.46,60.813,555.49,0.016162,49.671,0.073766,supercritical,CO2,C124389,carbon-dioxide,304.18,73.8,10.6,0.09433962264150944,2.1,9.773577235772358,0.0009307011999999999
638.78,723.75,11415.0,8.7602e-05,27.488,33.828,92.9,42.465,60.823,556.32,0.01591,49.767,0.073871,supercritical,CO2,C124389,carbon-dioxide,304.18,73.8,10.6,0.09433962264150944,2.1,9.80691056910569,0.0009285812
638.78,726.21,11441.0,8.7405e-05,27.478,33.825,92.862,42.47,60.833,557.16,0.015659,49.862,0.073976,supercritical,CO2,C124389,carbon-dioxide,304.18,73.8,10.6,0.09433962264150944,2.1,9.840243902439026,0.0009264929999999999
638.78,728.67,11467.0,8.7209e-05,27.469,33.823,92.825,42.475,60.843,557.99,0.015409,49.958,0.07408,supercritical,CO2,C124389,carbon-dioxide,304.18,73.8,10.6,0.09433962264150944,2.1,9.873577235772357,0.0009244154
638.78,731.13,11492.0,8.7014e-05,27.459,33.821,92.788,42.479,60.853,558.82,0.015161,50.054,0.074185,supercritical,CO2,C124389,carbon-dioxide,304.18,73.8,10.6,0.09433962264150944,2.1,9.906910569105692,0.0009223484
638.78,733.58,11518.0,8.6821e-05,27.45,33.819,92.751,42.484,60.862,559.66,0.014914,50.15,0.074289,supercritical,CO2,C124389,carbon-dioxide,304.18,73.8,10.6,0.09433962264150944,2.1,9.940108401084013,0.0009203025999999999
638.78,736.04,11544.0,8.6629e-05,27.44,33.816,92.714,42.489,60.872,560.49,0.014669,50.246,0.074393,supercritical,CO2,C124389,carbon-dioxide,304.18,73.8,10.6,0.09433962264150944,2.1,9.973441734417344,0.0009182674
638.78,738.5,11569.0,8.6438e-05,27.431,33.814,92.678,42.494,60.881,561.33,0.014425,50.342,0.074497,supercritical,CO2,C124389,carbon-dioxide,304.18,73.8,10.6,0.09433962264150944,2.1,10.006775067750677,0.0009162428
638.78,740.96,11594.0,8.6249e-05,27.421,33.812,92.641,42.499,60.89,562.16,0.014182,50.438,0.074601,supercritical,CO2,C124389,carbon-dioxide,304.18,73.8,10.6,0.09433962264150944,2.1,10.040108401084012,0.0009142393999999999
638.78,743.42,11620.0,8.6061e-05,27.412,33.81,92.605,42.503,60.9,562.99,0.013941,50.534,0.074704,supercritical,CO2,C124389,carbon-dioxide,304.18,73.8,10.6,0.09433962264150944,2.1,10.073441734417344,0.0009122465999999999
638.78,745.88,11645.0,8.5875e-05,27.403,33.808,92.568,42.508,60.909,563.83,0.013701,50.63,0.074808,supercritical,CO2,C124389,carbon-dioxide,304.18,73.8,10.6,0.09433962264150944,2.1,10.106775067750679,0.0009102749999999999
638.78,748.33,11670.0,8.569e-05,27.393,33.806,92.532,42.513,60.918,564.66,0.013462,50.726,0.074911,supercritical,CO2,C124389,carbon-dioxide,304.18,73.8,10.6,0.09433962264150944,2.1,10.139972899728999,0.0009083139999999999
638.78,750.79,11695.0,8.5506e-05,27.384,33.804,92.496,42.517,60.927,565.49,0.013225,50.822,0.075014,supercritical,CO2,C124389,carbon-dioxide,304.18,73.8,10.6,0.09433962264150944,2.1,10.17330623306233,0.0009063636
638.78,753.25,11720.0,8.5324e-05,27.375,33.802,92.46,42.522,60.935,566.33,0.012989,50.918,0.075117,supercritical,CO2,C124389,carbon-dioxide,304.18,73.8,10.6,0.09433962264150944,2.1,10.206639566395664,0.0009044343999999999
638.78,755.71,11745.0,8.5143e-05,27.366,33.8,92.424,42.527,60.944,567.16,0.012755,51.014,0.07522,supercritical,CO2,C124389,carbon-dioxide,304.18,73.8,10.6,0.09433962264150944,2.1,10.239972899728999,0.0009025157999999998
638.78,758.17,11770.0,8.4963e-05,27.356,33.798,92.388,42.532,60.953,567.99,0.012521,51.11,0.075323,supercritical,CO2,C124389,carbon-dioxide,304.18,73.8,10.6,0.09433962264150944,2.1,10.27330623306233,0.0009006078
638.78,760.63,11795.0,8.4785e-05,27.347,33.796,92.353,42.536,60.961,568.82,0.012289,51.206,0.075425,supercritical,CO2,C124389,carbon-dioxide,304.18,73.8,10.6,0.09433962264150944,2.1,10.306639566395665,0.0008987209999999999
638.78,763.08,11819.0,8.4608e-05,27.338,33.794,92.317,42.541,60.97,569.65,0.012059,51.303,0.075528,supercritical,CO2,C124389,carbon-dioxide,304.18,73.8,10.6,0.09433962264150944,2.1,10.339837398373986,0.0008968447999999999
638.78,765.54,11844.0,8.4432e-05,27.329,33.793,92.282,42.546,60.978,570.49,0.011829,51.399,0.07563,supercritical,CO2,C124389,carbon-dioxide,304.18,73.8,10.6,0.09433962264150944,2.1,10.373170731707317,0.0008949791999999999
638.78,768.0,11868.0,8.4257e-05,27.32,33.791,92.247,42.55,60.986,571.32,0.011601,51.495,0.075732,supercritical,CO2,C124389,carbon-dioxide,304.18,73.8,10.6,0.09433962264150944,2.1,10.40650406504065,0.0008931242
638.78,770.46,11893.0,8.4083e-05,27.311,33.789,92.212,42.555,60.994,572.15,0.011374,51.591,0.075834,supercritical,CO2,C124389,carbon-dioxide,304.18,73.8,10.6,0.09433962264150944,2.1,10.439837398373985,0.0008912798
638.78,772.92,11917.0,8.3911e-05,27.302,33.787,92.177,42.56,61.002,572.98,0.011149,51.687,0.075935,supercritical,CO2,C124389,carbon-dioxide,304.18,73.8,10.6,0.09433962264150944,2.1,10.473170731707317,0.0008894565999999999
638.78,775.38,11942.0,8.374e-05,27.293,33.786,92.142,42.564,61.01,573.81,0.010925,51.784,0.076037,supercritical,CO2,C124389,carbon-dioxide,304.18,73.8,10.6,0.09433962264150944,2.1,10.506504065040652,0.0008876439999999998
638.78,777.83,11966.0,8.357e-05,27.284,33.784,92.107,42.569,61.018,574.64,0.010701,51.88,0.076138,supercritical,CO2,C124389,carbon-dioxide,304.18,73.8,10.6,0.09433962264150944,2.1,10.539701897018972,0.000885842
638.78,780.29,11990.0,8.3401e-05,27.275,33.783,92.073,42.573,61.026,575.47,0.01048,51.976,0.076239,supercritical,CO2,C124389,carbon-dioxide,304.18,73.8,10.6,0.09433962264150944,2.1,10.573035230352303,0.0008840505999999999
638.78,782.75,12014.0,8.3234e-05,27.266,33.781,92.038,42.578,61.033,576.3,0.010259,52.072,0.076341,supercritical,CO2,C124389,carbon-dioxide,304.18,73.8,10.6,0.09433962264150944,2.1,10.606368563685637,0.0008822803999999999
638.78,785.21,12038.0,8.3067e-05,27.257,33.78,92.004,42.583,61.041,577.13,0.01004,52.169,0.076442,supercritical,CO2,C124389,carbon-dioxide,304.18,73.8,10.6,0.09433962264150944,2.1,10.639701897018972,0.0008805101999999999
638.78,787.67,12062.0,8.2902e-05,27.248,33.778,91.97,42.587,61.048,577.96,0.0098215,52.265,0.076542,supercritical,CO2,C124389,carbon-dioxide,304.18,73.8,10.6,0.09433962264150944,2.1,10.673035230352303,0.0008787611999999999
638.78,790.12,12086.0,8.2738e-05,27.239,33.777,91.935,42.592,61.056,578.79,0.0096045,52.361,0.076643,supercritical,CO2,C124389,carbon-dioxide,304.18,73.8,10.6,0.09433962264150944,2.1,10.706233062330623,0.0008770228
638.78,792.58,12110.0,8.2575e-05,27.23,33.775,91.901,42.596,61.063,579.62,0.0093888,52.457,0.076743,supercritical,CO2,C124389,carbon-dioxide,304.18,73.8,10.6,0.09433962264150944,2.1,10.739566395663958,0.000875295
638.78,795.04,12134.0,8.2413e-05,27.222,33.774,91.867,42.601,61.07,580.45,0.0091742,52.554,0.076844,supercritical,CO2,C124389,carbon-dioxide,304.18,73.8,10.6,0.09433962264150944,2.1,10.77289972899729,0.0008735777999999999
638.78,797.5,12158.0,8.2252e-05,27.213,33.772,91.834,42.606,61.077,581.27,0.0089608,52.65,0.076944,supercritical,CO2,C124389,carbon-dioxide,304.18,73.8,10.6,0.09433962264150944,2.1,10.806233062330623,0.0008718711999999999
638.78,799.96,12181.0,8.2092e-05,27.204,33.771,91.8,42.61,61.084,582.1,0.0087486,52.746,0.077044,supercritical,CO2,C124389,carbon-dioxide,304.18,73.8,10.6,0.09433962264150944,2.1,10.839566395663958,0.0008701751999999999
638.78,802.42,12205.0,8.1933e-05,27.195,33.77,91.766,42.615,61.091,582.93,0.0085375,52.843,0.077144,supercritical,CO2,C124389,carbon-dioxide,304.18,73.8,10.6,0.09433962264150944,2.1,10.87289972899729,0.0008684898
638.78,804.87,12229.0,8.1776e-05,27.187,33.768,91.733,42.619,61.098,583.76,0.0083276,52.939,0.077243,supercritical,CO2,C124389,carbon-dioxide,304.18,73.8,10.6,0.09433962264150944,2.1,10.90609756097561,0.0008668255999999999
638.78,807.33,12252.0,8.1619e-05,27.178,33.767,91.699,42.624,61.105,584.58,0.0081189,53.035,0.077343,supercritical,CO2,C124389,carbon-dioxide,304.18,73.8,10.6,0.09433962264150944,2.1,10.939430894308945,0.0008651614
638.78,809.79,12275.0,8.1463e-05,27.169,33.766,91.666,42.628,61.111,585.41,0.0079113,53.131,0.077442,supercritical,CO2,C124389,carbon-dioxide,304.18,73.8,10.6,0.09433962264150944,2.1,10.972764227642276,0.0008635078
638.78,812.25,12299.0,8.1309e-05,27.161,33.765,91.633,42.633,61.118,586.24,0.0077048,53.228,0.077542,supercritical,CO2,C124389,carbon-dioxide,304.18,73.8,10.6,0.09433962264150944,2.1,11.00609756097561,0.0008618753999999999
638.78,814.71,12322.0,8.1155e-05,27.152,33.764,91.6,42.637,61.124,587.06,0.0074995,53.324,0.077641,supercritical,CO2,C124389,carbon-dioxide,304.18,73.8,10.6,0.09433962264150944,2.1,11.039430894308945,0.000860243
638.78,817.17,12345.0,8.1003e-05,27.143,33.763,91.567,42.642,61.131,587.89,0.0072953,53.42,0.07774,supercritical,CO2,C124389,carbon-dioxide,304.18,73.8,10.6,0.09433962264150944,2.1,11.072764227642276,0.0008586318
638.78,819.62,12368.0,8.0851e-05,27.135,33.762,91.534,42.646,61.137,588.71,0.0070922,53.517,0.077838,supercritical,CO2,C124389,carbon-dioxide,304.18,73.8,10.6,0.09433962264150944,2.1,11.105962059620596,0.0008570206
638.78,822.08,12391.0,8.0701e-05,27.126,33.76,91.501,42.651,61.144,589.54,0.0068902,53.613,0.077937,supercritical,CO2,C124389,carbon-dioxide,304.18,73.8,10.6,0.09433962264150944,2.1,11.139295392953931,0.0008554305999999999
638.78,824.54,12414.0,8.0551e-05,27.118,33.759,91.469,42.655,61.15,590.36,0.0066893,53.709,0.078036,supercritical,CO2,C124389,carbon-dioxide,304.18,73.8,10.6,0.09433962264150944,2.1,11.172628726287263,0.0008538405999999999
638.78,827.0,12437.0,8.0402e-05,27.109,33.758,91.436,42.66,61.156,591.19,0.0064896,53.806,0.078134,supercritical,CO2,C124389,carbon-dioxide,304.18,73.8,10.6,0.09433962264150944,2.1,11.205962059620596,0.0008522611999999998
638.78,829.46,12460.0,8.0255e-05,27.101,33.758,91.404,42.664,61.162,592.01,0.0062909,53.902,0.078232,supercritical,CO2,C124389,carbon-dioxide,304.18,73.8,10.6,0.09433962264150944,2.1,11.239295392953931,0.0008507029999999999
638.78,831.92,12483.0,8.0108e-05,27.092,33.757,91.372,42.669,61.168,592.83,0.0060933,53.998,0.07833,supercritical,CO2,C124389,carbon-dioxide,304.18,73.8,10.6,0.09433962264150944,2.1,11.272628726287262,0.0008491448
638.78,834.37,12506.0,7.9962e-05,27.084,33.756,91.339,42.673,61.174,593.66,0.0058967,54.095,0.078428,supercritical,CO2,C124389,carbon-dioxide,304.18,73.8,10.6,0.09433962264150944,2.1,11.305826558265583,0.0008475972
638.78,836.83,12529.0,7.9818e-05,27.075,33.755,91.307,42.678,61.18,594.48,0.0057013,54.191,0.078526,supercritical,CO2,C124389,carbon-dioxide,304.18,73.8,10.6,0.09433962264150944,2.1,11.339159891598918,0.0008460707999999999
638.78,839.29,12551.0,7.9674e-05,27.067,33.754,91.275,42.682,61.185,595.3,0.0055069,54.287,0.078624,supercritical,CO2,C124389,carbon-dioxide,304.18,73.8,10.6,0.09433962264150944,2.1,11.37249322493225,0.0008445443999999999
638.78,841.75,12574.0,7.9531e-05,27.059,33.753,91.243,42.687,61.191,596.12,0.0053135,54.384,0.078721,supercritical,CO2,C124389,carbon-dioxide,304.18,73.8,10.6,0.09433962264150944,2.1,11.405826558265582,0.0008430285999999999
638.78,844.21,12596.0,7.9389e-05,27.05,33.752,91.211,42.691,61.197,596.94,0.0051213,54.48,0.078818,supercritical,CO2,C124389,carbon-dioxide,304.18,73.8,10.6,0.09433962264150944,2.1,11.439159891598917,0.0008415233999999999
638.78,846.67,12619.0,7.9247e-05,27.042,33.752,91.18,42.695,61.202,597.76,0.00493,54.576,0.078916,supercritical,CO2,C124389,carbon-dioxide,304.18,73.8,10.6,0.09433962264150944,2.1,11.472493224932249,0.0008400181999999998
638.78,849.12,12641.0,7.9107e-05,27.034,33.751,91.148,42.7,61.208,598.59,0.0047398,54.672,0.079013,supercritical,CO2,C124389,carbon-dioxide,304.18,73.8,10.6,0.09433962264150944,2.1,11.50569105691057,0.0008385341999999999
638.78,851.58,12663.0,7.8968e-05,27.025,33.75,91.117,42.704,61.213,599.41,0.0045506,54.769,0.07911,supercritical,CO2,C124389,carbon-dioxide,304.18,73.8,10.6,0.09433962264150944,2.1,11.539024390243904,0.0008370607999999999
638.78,854.04,12686.0,7.8829e-05,27.017,33.75,91.085,42.709,61.218,600.22,0.0043625,54.865,0.079206,supercritical,CO2,C124389,carbon-dioxide,304.18,73.8,10.6,0.09433962264150944,2.1,11.572357723577236,0.0008355874
638.78,856.5,12708.0,7.8692e-05,27.009,33.749,91.054,42.713,61.224,601.04,0.0041753,54.961,0.079303,supercritical,CO2,C124389,carbon-dioxide,304.18,73.8,10.6,0.09433962264150944,2.1,11.605691056910569,0.0008341351999999999
638.78,858.96,12730.0,7.8555e-05,27.001,33.748,91.023,42.718,61.229,601.86,0.0039892,55.057,0.0794,supercritical,CO2,C124389,carbon-dioxide,304.18,73.8,10.6,0.09433962264150944,2.1,11.639024390243904,0.0008326829999999999
638.78,861.42,12752.0,7.8419e-05,26.993,33.748,90.992,42.722,61.234,602.68,0.0038041,55.154,0.079496,supercritical,CO2,C124389,carbon-dioxide,304.18,73.8,10.6,0.09433962264150944,2.1,11.672357723577235,0.0008312413999999998
638.78,863.87,12774.0,7.8284e-05,26.984,33.747,90.961,42.726,61.239,603.5,0.0036199,55.25,0.079592,supercritical,CO2,C124389,carbon-dioxide,304.18,73.8,10.6,0.09433962264150944,2.1,11.705555555555556,0.0008298103999999999
638.78,866.33,12796.0,7.8149e-05,26.976,33.747,90.93,42.731,61.244,604.32,0.0034368,55.346,0.079688,supercritical,CO2,C124389,carbon-dioxide,304.18,73.8,10.6,0.09433962264150944,2.1,11.73888888888889,0.0008283794
638.78,868.79,12818.0,7.8016e-05,26.968,33.746,90.899,42.735,61.249,605.13,0.0032546,55.442,0.079784,supercritical,CO2,C124389,carbon-dioxide,304.18,73.8,10.6,0.09433962264150944,2.1,11.772222222222222,0.0008269696
638.78,871.25,12840.0,7.7883e-05,26.96,33.746,90.868,42.739,61.254,605.95,0.0030735,55.538,0.07988,supercritical,CO2,C124389,carbon-dioxide,304.18,73.8,10.6,0.09433962264150944,2.1,11.805555555555555,0.0008255598
638.78,873.71,12862.0,7.7751e-05,26.952,33.745,90.837,42.744,61.259,606.77,0.0028933,55.635,0.079976,supercritical,CO2,C124389,carbon-dioxide,304.18,73.8,10.6,0.09433962264150944,2.1,11.83888888888889,0.0008241605999999999
638.78,876.17,12883.0,7.762e-05,26.944,33.745,90.807,42.748,61.264,607.58,0.002714,55.731,0.080071,supercritical,CO2,C124389,carbon-dioxide,304.18,73.8,10.6,0.09433962264150944,2.1,11.872222222222222,0.000822772
638.78,878.62,12905.0,7.749e-05,26.936,33.744,90.776,42.752,61.268,608.4,0.0025358,55.827,0.080166,supercritical,CO2,C124389,carbon-dioxide,304.18,73.8,10.6,0.09433962264150944,2.1,11.905420054200542,0.000821394
638.78,881.08,12926.0,7.7361e-05,26.928,33.744,90.746,42.757,61.273,609.21,0.0023585,55.923,0.080262,supercritical,CO2,C124389,carbon-dioxide,304.18,73.8,10.6,0.09433962264150944,2.1,11.938753387533877,0.0008200265999999998
638.78,883.54,12948.0,7.7232e-05,26.92,33.744,90.716,42.761,61.278,610.03,0.0021821,56.019,0.080357,supercritical,CO2,C124389,carbon-dioxide,304.18,73.8,10.6,0.09433962264150944,2.1,11.972086720867209,0.0008186591999999999
638.78,886.0,12970.0,7.7104e-05,26.912,33.743,90.686,42.766,61.282,610.84,0.0020067,56.115,0.080452,supercritical,CO2,C124389,carbon-dioxide,304.18,73.8,10.6,0.09433962264150944,2.1,12.005420054200542,0.0008173023999999999
638.78,888.46,12991.0,7.6977e-05,26.904,33.743,90.655,42.77,61.287,611.66,0.0018322,56.212,0.080547,supercritical,CO2,C124389,carbon-dioxide,304.18,73.8,10.6,0.09433962264150944,2.1,12.038753387533877,0.0008159562
638.78,890.92,13012.0,7.685e-05,26.896,33.743,90.625,42.774,61.291,612.47,0.0016586,56.308,0.080641,supercritical,CO2,C124389,carbon-dioxide,304.18,73.8,10.6,0.09433962264150944,2.1,12.072086720867208,0.0008146099999999999
638.78,893.37,13034.0,7.6725e-05,26.888,33.743,90.595,42.779,61.295,613.28,0.001486,56.404,0.080736,supercritical,CO2,C124389,carbon-dioxide,304.18,73.8,10.6,0.09433962264150944,2.1,12.105284552845529,0.0008132849999999999