Temperature (K),Pressure (bar),Density (mol/m3),Volume (m3/mol),Internal Energy (kJ/mol),Enthalpy (kJ/mol),Entropy (J/mol*K),Cv (J/mol*K),Cp (J/mol*K),Sound Spd. (m/s),Joule-Thomson (K/bar),Viscosity (uPa*s),Therm. Cond. (W/m*K),Phase,substance,substance_id,substance_name,Tc,Pc,rhoc,Vmc,Tr,Pr,Vmr
293.7,523.79,18374.0,5.4424e-05,3.4772,6.3279,145.83,23.268,42.613,537.6,0.0077537,43.972,0.062332,supercritical,O2,C7782447,oxygen,154.58,50.43,13.6,0.07352941176470588,1.9,10.386476303787427,0.0007401663999999999
293.7,525.16,18401.0,5.4345e-05,3.4735,6.3275,145.8,23.271,42.607,538.33,0.0075105,44.038,0.062422,supercritical,O2,C7782447,oxygen,154.58,50.43,13.6,0.07352941176470588,1.9,10.413642673012095,0.000739092
293.7,526.52,18428.0,5.4265e-05,3.4698,6.327,145.77,23.274,42.6,539.06,0.0072686,44.103,0.062511,supercritical,O2,C7782447,oxygen,154.58,50.43,13.6,0.07352941176470588,1.9,10.44061074757089,0.000738004
293.7,527.89,18455.0,5.4186e-05,3.4662,6.3266,145.75,23.276,42.594,539.78,0.007028,44.168,0.062601,supercritical,O2,C7782447,oxygen,154.58,50.43,13.6,0.07352941176470588,1.9,10.467777116795558,0.0007369296
293.7,529.25,18482.0,5.4108e-05,3.4625,6.3262,145.72,23.279,42.587,540.51,0.0067889,44.233,0.062691,supercritical,O2,C7782447,oxygen,154.58,50.43,13.6,0.07352941176470588,1.9,10.494745191354353,0.0007358687999999999
293.7,530.62,18508.0,5.403e-05,3.4589,6.3258,145.69,23.282,42.581,541.24,0.0065511,44.298,0.06278,supercritical,O2,C7782447,oxygen,154.58,50.43,13.6,0.07352941176470588,1.9,10.52191156057902,0.000734808
293.7,531.99,18535.0,5.3952e-05,3.4553,6.3255,145.67,23.285,42.574,541.96,0.0063146,44.363,0.062869,supercritical,O2,C7782447,oxygen,154.58,50.43,13.6,0.07352941176470588,1.9,10.549077929803689,0.0007337471999999999
293.7,533.35,18561.0,5.3875e-05,3.4517,6.3251,145.64,23.287,42.568,542.69,0.0060795,44.428,0.062959,supercritical,O2,C7782447,oxygen,154.58,50.43,13.6,0.07352941176470588,1.9,10.576046004362484,0.0007327
293.7,534.72,18588.0,5.3799e-05,3.4481,6.3248,145.62,23.29,42.561,543.41,0.0058457,44.493,0.063048,supercritical,O2,C7782447,oxygen,154.58,50.43,13.6,0.07352941176470588,1.9,10.603212373587152,0.0007316664
293.7,536.08,18614.0,5.3723e-05,3.4445,6.3244,145.59,23.293,42.555,544.13,0.0056132,44.558,0.063137,supercritical,O2,C7782447,oxygen,154.58,50.43,13.6,0.07352941176470588,1.9,10.630180448145946,0.0007306328
293.7,537.45,18640.0,5.3647e-05,3.4409,6.3241,145.56,23.295,42.548,544.86,0.0053821,44.623,0.063226,supercritical,O2,C7782447,oxygen,154.58,50.43,13.6,0.07352941176470588,1.9,10.657346817370614,0.0007295992
293.7,538.81,18667.0,5.3571e-05,3.4373,6.3238,145.54,23.298,42.541,545.58,0.0051522,44.688,0.063315,supercritical,O2,C7782447,oxygen,154.58,50.43,13.6,0.07352941176470588,1.9,10.684314891929406,0.0007285656
293.7,540.17,18693.0,5.3497e-05,3.4337,6.3235,145.51,23.301,42.535,546.3,0.0049236,44.753,0.063404,supercritical,O2,C7782447,oxygen,154.58,50.43,13.6,0.07352941176470588,1.9,10.7112829664882,0.0007275592
293.7,541.54,18719.0,5.3422e-05,3.4302,6.3232,145.49,23.304,42.528,547.02,0.0046963,44.818,0.063493,supercritical,O2,C7782447,oxygen,154.58,50.43,13.6,0.07352941176470588,1.9,10.738449335712868,0.0007265392
293.7,542.9,18745.0,5.3348e-05,3.4267,6.323,145.46,23.306,42.522,547.74,0.0044703,44.882,0.063581,supercritical,O2,C7782447,oxygen,154.58,50.43,13.6,0.07352941176470588,1.9,10.765417410271663,0.0007255327999999999
293.7,544.27,18771.0,5.3274e-05,3.4231,6.3227,145.43,23.309,42.515,548.46,0.0042455,44.947,0.06367,supercritical,O2,C7782447,oxygen,154.58,50.43,13.6,0.07352941176470588,1.9,10.792583779496331,0.0007245264
293.7,545.63,18797.0,5.3201e-05,3.4196,6.3225,145.41,23.312,42.508,549.18,0.004022,45.012,0.063759,supercritical,O2,C7782447,oxygen,154.58,50.43,13.6,0.07352941176470588,1.9,10.819551854055126,0.0007235336
293.7,547.0,18822.0,5.3128e-05,3.4161,6.3222,145.38,23.314,42.502,549.9,0.0037997,45.076,0.063847,supercritical,O2,C7782447,oxygen,154.58,50.43,13.6,0.07352941176470588,1.9,10.846718223279794,0.0007225408
293.7,548.37,18848.0,5.3056e-05,3.4126,6.322,145.36,23.317,42.495,550.62,0.0035786,45.141,0.063936,supercritical,O2,C7782447,oxygen,154.58,50.43,13.6,0.07352941176470588,1.9,10.873884592504462,0.0007215616
293.7,549.73,18874.0,5.2984e-05,3.4091,6.3218,145.33,23.32,42.488,551.33,0.0033588,45.205,0.064024,supercritical,O2,C7782447,oxygen,154.58,50.43,13.6,0.07352941176470588,1.9,10.900852667063257,0.0007205824
293.7,551.1,18899.0,5.2913e-05,3.4057,6.3216,145.31,23.322,42.482,552.05,0.0031402,45.27,0.064113,supercritical,O2,C7782447,oxygen,154.58,50.43,13.6,0.07352941176470588,1.9,10.928019036287925,0.0007196168
293.7,552.46,18925.0,5.2841e-05,3.4022,6.3215,145.28,23.325,42.475,552.77,0.0029228,45.334,0.064201,supercritical,O2,C7782447,oxygen,154.58,50.43,13.6,0.07352941176470588,1.9,10.95498711084672,0.0007186375999999999
293.7,553.83,18950.0,5.2771e-05,3.3987,6.3213,145.26,23.327,42.468,553.48,0.0027067,45.398,0.064289,supercritical,O2,C7782447,oxygen,154.58,50.43,13.6,0.07352941176470588,1.9,10.982153480071387,0.0007176856
293.7,555.19,18975.0,5.27e-05,3.3953,6.3211,145.23,23.33,42.461,554.2,0.0024917,45.463,0.064377,supercritical,O2,C7782447,oxygen,154.58,50.43,13.6,0.07352941176470588,1.9,11.009121554630182,0.00071672
293.7,556.55,19001.0,5.263e-05,3.3918,6.321,145.21,23.333,42.455,554.91,0.0022778,45.527,0.064465,supercritical,O2,C7782447,oxygen,154.58,50.43,13.6,0.07352941176470588,1.9,11.036089629188973,0.000715768
293.7,557.92,19026.0,5.2561e-05,3.3884,6.3209,145.18,23.335,42.448,555.63,0.0020652,45.591,0.064554,supercritical,O2,C7782447,oxygen,154.58,50.43,13.6,0.07352941176470588,1.9,11.063255998413641,0.0007148295999999999
293.7,559.28,19051.0,5.2491e-05,3.385,6.3208,145.16,23.338,42.441,556.34,0.0018537,45.655,0.064641,supercritical,O2,C7782447,oxygen,154.58,50.43,13.6,0.07352941176470588,1.9,11.090224072972436,0.0007138776
293.7,560.65,19076.0,5.2422e-05,3.3816,6.3207,145.13,23.341,42.434,557.05,0.0016434,45.719,0.064729,supercritical,O2,C7782447,oxygen,154.58,50.43,13.6,0.07352941176470588,1.9,11.117390442197104,0.0007129392
293.7,562.01,19101.0,5.2354e-05,3.3782,6.3206,145.11,23.343,42.428,557.76,0.0014343,45.784,0.064817,supercritical,O2,C7782447,oxygen,154.58,50.43,13.6,0.07352941176470588,1.9,11.144358516755899,0.0007120144
293.7,563.38,19126.0,5.2286e-05,3.3748,6.3205,145.08,23.346,42.421,558.48,0.0012263,45.848,0.064905,supercritical,O2,C7782447,oxygen,154.58,50.43,13.6,0.07352941176470588,1.9,11.171524885980567,0.0007110896
293.7,564.75,19150.0,5.2218e-05,3.3714,6.3204,145.06,23.349,42.414,559.19,0.0010194,45.912,0.064993,supercritical,O2,C7782447,oxygen,154.58,50.43,13.6,0.07352941176470588,1.9,11.198691255205235,0.0007101648
293.7,566.11,19175.0,5.2151e-05,3.3681,6.3204,145.03,23.351,42.407,559.9,0.00081364,45.976,0.06508,supercritical,O2,C7782447,oxygen,154.58,50.43,13.6,0.07352941176470588,1.9,11.22565932976403,0.0007092536000000001
293.7,567.48,19200.0,5.2084e-05,3.3647,6.3203,145.01,23.354,42.401,560.61,0.00060901,46.04,0.065168,supercritical,O2,C7782447,oxygen,154.58,50.43,13.6,0.07352941176470588,1.9,11.252825698988698,0.0007083424
293.7,568.84,19225.0,5.2017e-05,3.3614,6.3203,144.99,23.356,42.394,561.31,0.00040549,46.103,0.065255,supercritical,O2,C7782447,oxygen,154.58,50.43,13.6,0.07352941176470588,1.9,11.279793773547492,0.0007074312
293.7,570.21,19249.0,5.1951e-05,3.358,6.3203,144.96,23.359,42.387,562.02,0.00020308,46.167,0.065343,supercritical,O2,C7782447,oxygen,154.58,50.43,13.6,0.07352941176470588,1.9,11.30696014277216,0.0007065336
293.7,571.57,19274.0,5.1885e-05,3.3547,6.3203,144.94,23.362,42.38,562.73,1.7569e-06,46.231,0.06543,supercritical,O2,C7782447,oxygen,154.58,50.43,13.6,0.07352941176470588,1.9,11.333928217330955,0.000705636
293.7,572.93,19298.0,5.1819e-05,3.3514,6.3203,144.91,23.364,42.373,563.44,-0.00019847,46.295,0.065518,supercritical,O2,C7782447,oxygen,154.58,50.43,13.6,0.07352941176470588,1.9,11.360896291889746,0.0007047383999999999
293.7,574.3,19322.0,5.1754e-05,3.3481,6.3203,144.89,23.367,42.366,564.14,-0.00039762,46.359,0.065605,supercritical,O2,C7782447,oxygen,154.58,50.43,13.6,0.07352941176470588,1.9,11.388062661114414,0.0007038544
293.7,575.66,19347.0,5.1689e-05,3.3448,6.3203,144.87,23.369,42.36,564.85,-0.00059569,46.422,0.065692,supercritical,O2,C7782447,oxygen,154.58,50.43,13.6,0.07352941176470588,1.9,11.41503073567321,0.0007029704
293.7,577.03,19371.0,5.1624e-05,3.3415,6.3204,144.84,23.372,42.353,565.55,-0.0007927,46.486,0.065779,supercritical,O2,C7782447,oxygen,154.58,50.43,13.6,0.07352941176470588,1.9,11.442197104897877,0.0007020864
293.7,578.39,19395.0,5.156e-05,3.3382,6.3204,144.82,23.374,42.346,566.26,-0.00098865,46.55,0.065867,supercritical,O2,C7782447,oxygen,154.58,50.43,13.6,0.07352941176470588,1.9,11.469165179456672,0.000701216
293.7,579.76,19419.0,5.1496e-05,3.335,6.3205,144.79,23.377,42.339,566.96,-0.0011835,46.613,0.065954,supercritical,O2,C7782447,oxygen,154.58,50.43,13.6,0.07352941176470588,1.9,11.49633154868134,0.0007003456
293.7,581.12,19443.0,5.1433e-05,3.3317,6.3206,144.77,23.38,42.332,567.67,-0.0013774,46.677,0.066041,supercritical,O2,C7782447,oxygen,154.58,50.43,13.6,0.07352941176470588,1.9,11.523299623240135,0.0006994888
293.7,582.49,19467.0,5.1369e-05,3.3284,6.3207,144.75,23.382,42.325,568.37,-0.0015702,46.74,0.066128,supercritical,O2,C7782447,oxygen,154.58,50.43,13.6,0.07352941176470588,1.9,11.550465992464803,0.0006986184
293.7,583.86,19491.0,5.1306e-05,3.3252,6.3207,144.72,23.385,42.319,569.07,-0.001762,46.804,0.066214,supercritical,O2,C7782447,oxygen,154.58,50.43,13.6,0.07352941176470588,1.9,11.57763236168947,0.0006977616
293.7,585.22,19515.0,5.1244e-05,3.322,6.3209,144.7,23.387,42.312,569.77,-0.0019528,46.867,0.066301,supercritical,O2,C7782447,oxygen,154.58,50.43,13.6,0.07352941176470588,1.9,11.604600436248266,0.0006969184
293.7,586.59,19538.0,5.1182e-05,3.3187,6.321,144.68,23.39,42.305,570.47,-0.0021425,46.931,0.066388,supercritical,O2,C7782447,oxygen,154.58,50.43,13.6,0.07352941176470588,1.9,11.631766805472934,0.0006960752
293.7,587.95,19562.0,5.112e-05,3.3155,6.3211,144.65,23.392,42.298,571.17,-0.0023312,46.994,0.066475,supercritical,O2,C7782447,oxygen,154.58,50.43,13.6,0.07352941176470588,1.9,11.658734880031728,0.000695232
293.7,589.32,19586.0,5.1058e-05,3.3123,6.3212,144.63,23.395,42.291,571.87,-0.002519,47.058,0.066561,supercritical,O2,C7782447,oxygen,154.58,50.43,13.6,0.07352941176470588,1.9,11.685901249256396,0.0006943887999999999
293.7,590.68,19609.0,5.0997e-05,3.3091,6.3214,144.61,23.397,42.284,572.57,-0.0027057,47.121,0.066648,supercritical,O2,C7782447,oxygen,154.58,50.43,13.6,0.07352941176470588,1.9,11.71286932381519,0.0006935592
293.7,592.04,19633.0,5.0936e-05,3.3059,6.3216,144.58,23.4,42.278,573.27,-0.0028915,47.184,0.066734,supercritical,O2,C7782447,oxygen,154.58,50.43,13.6,0.07352941176470588,1.9,11.739837398373982,0.0006927296
293.7,593.41,19656.0,5.0875e-05,3.3028,6.3217,144.56,23.402,42.271,573.97,-0.0030762,47.247,0.066821,supercritical,O2,C7782447,oxygen,154.58,50.43,13.6,0.07352941176470588,1.9,11.76700376759865,0.0006919000000000001
293.7,594.77,19679.0,5.0815e-05,3.2996,6.3219,144.54,23.405,42.264,574.66,-0.00326,47.311,0.066907,supercritical,O2,C7782447,oxygen,154.58,50.43,13.6,0.07352941176470588,1.9,11.793971842157445,0.000691084
293.7,596.14,19703.0,5.0755e-05,3.2964,6.3221,144.51,23.407,42.257,575.36,-0.0034428,47.374,0.066994,supercritical,O2,C7782447,oxygen,154.58,50.43,13.6,0.07352941176470588,1.9,11.821138211382113,0.000690268
293.7,597.5,19726.0,5.0695e-05,3.2933,6.3223,144.49,23.41,42.25,576.06,-0.0036247,47.437,0.06708,supercritical,O2,C7782447,oxygen,154.58,50.43,13.6,0.07352941176470588,1.9,11.848106285940908,0.000689452
293.7,598.87,19749.0,5.0635e-05,3.2901,6.3225,144.47,23.412,42.243,576.75,-0.0038056,47.5,0.067166,supercritical,O2,C7782447,oxygen,154.58,50.43,13.6,0.07352941176470588,1.9,11.875272655165576,0.000688636
293.7,600.24,19772.0,5.0576e-05,3.287,6.3227,144.45,23.415,42.236,577.45,-0.0039856,47.563,0.067253,supercritical,O2,C7782447,oxygen,154.58,50.43,13.6,0.07352941176470588,1.9,11.902439024390244,0.0006878336
293.7,601.6,19795.0,5.0517e-05,3.2839,6.323,144.42,23.417,42.23,578.14,-0.0041646,47.626,0.067339,supercritical,O2,C7782447,oxygen,154.58,50.43,13.6,0.07352941176470588,1.9,11.929407098949039,0.0006870311999999999
293.7,602.97,19818.0,5.0459e-05,3.2807,6.3232,144.4,23.42,42.223,578.83,-0.0043427,47.689,0.067425,supercritical,O2,C7782447,oxygen,154.58,50.43,13.6,0.07352941176470588,1.9,11.956573468173707,0.0006862423999999999
293.7,604.33,19841.0,5.04e-05,3.2776,6.3235,144.38,23.422,42.216,579.53,-0.0045198,47.752,0.067511,supercritical,O2,C7782447,oxygen,154.58,50.43,13.6,0.07352941176470588,1.9,11.983541542732501,0.0006854399999999999
293.7,605.7,19864.0,5.0342e-05,3.2745,6.3237,144.36,23.425,42.209,580.22,-0.004696,47.815,0.067597,supercritical,O2,C7782447,oxygen,154.58,50.43,13.6,0.07352941176470588,1.9,12.01070791195717,0.0006846512
293.7,607.06,19887.0,5.0285e-05,3.2714,6.324,144.33,23.427,42.202,580.91,-0.0048713,47.878,0.067683,supercritical,O2,C7782447,oxygen,154.58,50.43,13.6,0.07352941176470588,1.9,12.037675986515962,0.0006838759999999999
293.7,608.42,19910.0,5.0227e-05,3.2684,6.3243,144.31,23.43,42.195,581.6,-0.0050457,47.941,0.067769,supercritical,O2,C7782447,oxygen,154.58,50.43,13.6,0.07352941176470588,1.9,12.064644061074757,0.0006830871999999999
293.7,609.79,19932.0,5.017e-05,3.2653,6.3246,144.29,23.432,42.189,582.29,-0.0052192,48.004,0.067855,supercritical,O2,C7782447,oxygen,154.58,50.43,13.6,0.07352941176470588,1.9,12.091810430299425,0.000682312
293.7,611.15,19955.0,5.0113e-05,3.2622,6.3249,144.27,23.435,42.182,582.98,-0.0053918,48.067,0.067941,supercritical,O2,C7782447,oxygen,154.58,50.43,13.6,0.07352941176470588,1.9,12.118778504858218,0.0006815368
293.7,612.52,19977.0,5.0057e-05,3.2592,6.3252,144.24,23.437,42.175,583.67,-0.0055635,48.129,0.068026,supercritical,O2,C7782447,oxygen,154.58,50.43,13.6,0.07352941176470588,1.9,12.145944874082886,0.0006807752
293.7,613.88,20000.0,5e-05,3.2561,6.3255,144.22,23.44,42.168,584.36,-0.0057343,48.192,0.068112,supercritical,O2,C7782447,oxygen,154.58,50.43,13.6,0.07352941176470588,1.9,12.172912948641681,0.00068
293.7,615.25,20022.0,4.9944e-05,3.2531,6.3259,144.2,23.442,42.161,585.05,-0.0059042,48.255,0.068198,supercritical,O2,C7782447,oxygen,154.58,50.43,13.6,0.07352941176470588,1.9,12.200079317866349,0.0006792384
293.7,616.62,20045.0,4.9888e-05,3.25,6.3262,144.18,23.445,42.155,585.73,-0.0060733,48.318,0.068283,supercritical,O2,C7782447,oxygen,154.58,50.43,13.6,0.07352941176470588,1.9,12.227245687091017,0.0006784768
293.7,617.98,20067.0,4.9833e-05,3.247,6.3266,144.16,23.447,42.148,586.42,-0.0062415,48.38,0.068369,supercritical,O2,C7782447,oxygen,154.58,50.43,13.6,0.07352941176470588,1.9,12.254213761649812,0.0006777288
293.7,619.35,20089.0,4.9778e-05,3.244,6.3269,144.13,23.45,42.141,587.1,-0.0064088,48.443,0.068454,supercritical,O2,C7782447,oxygen,154.58,50.43,13.6,0.07352941176470588,1.9,12.28138013087448,0.0006769807999999999
293.7,620.71,20112.0,4.9723e-05,3.241,6.3273,144.11,23.452,42.134,587.79,-0.0065752,48.505,0.06854,supercritical,O2,C7782447,oxygen,154.58,50.43,13.6,0.07352941176470588,1.9,12.308348205433274,0.0006762328
293.7,622.08,20134.0,4.9668e-05,3.238,6.3277,144.09,23.455,42.127,588.47,-0.0067409,48.568,0.068625,supercritical,O2,C7782447,oxygen,154.58,50.43,13.6,0.07352941176470588,1.9,12.335514574657942,0.0006754848
293.7,623.44,20156.0,4.9614e-05,3.235,6.3281,144.07,23.457,42.121,589.16,-0.0069056,48.631,0.068711,supercritical,O2,C7782447,oxygen,154.58,50.43,13.6,0.07352941176470588,1.9,12.362482649216737,0.0006747504
293.7,624.8,20178.0,4.9559e-05,3.232,6.3285,144.05,23.459,42.114,589.84,-0.0070695,48.693,0.068796,supercritical,O2,C7782447,oxygen,154.58,50.43,13.6,0.07352941176470588,1.9,12.38945072377553,0.0006740024
293.7,626.17,20200.0,4.9505e-05,3.229,6.3289,144.03,23.462,42.107,590.52,-0.0072326,48.756,0.068881,supercritical,O2,C7782447,oxygen,154.58,50.43,13.6,0.07352941176470588,1.9,12.416617093000198,0.000673268
293.7,627.53,20222.0,4.9452e-05,3.2261,6.3293,144.0,23.464,42.1,591.21,-0.0073949,48.818,0.068966,supercritical,O2,C7782447,oxygen,154.58,50.43,13.6,0.07352941176470588,1.9,12.443585167558993,0.0006725472
293.7,628.9,20244.0,4.9398e-05,3.2231,6.3298,143.98,23.467,42.093,591.89,-0.0075563,48.88,0.069052,supercritical,O2,C7782447,oxygen,154.58,50.43,13.6,0.07352941176470588,1.9,12.470751536783661,0.0006718128
293.7,630.26,20265.0,4.9345e-05,3.2201,6.3302,143.96,23.469,42.087,592.57,-0.0077169,48.943,0.069137,supercritical,O2,C7782447,oxygen,154.58,50.43,13.6,0.07352941176470588,1.9,12.497719611342454,0.000671092
293.7,631.63,20287.0,4.9292e-05,3.2172,6.3306,143.94,23.472,42.08,593.25,-0.0078767,49.005,0.069222,supercritical,O2,C7782447,oxygen,154.58,50.43,13.6,0.07352941176470588,1.9,12.524885980567122,0.0006703712
293.7,633.0,20309.0,4.924e-05,3.2143,6.3311,143.92,23.474,42.073,593.93,-0.0080357,49.068,0.069307,supercritical,O2,C7782447,oxygen,154.58,50.43,13.6,0.07352941176470588,1.9,12.55205234979179,0.000669664
293.7,634.36,20331.0,4.9187e-05,3.2113,6.3316,143.9,23.476,42.066,594.61,-0.0081939,49.13,0.069392,supercritical,O2,C7782447,oxygen,154.58,50.43,13.6,0.07352941176470588,1.9,12.579020424350585,0.0006689432
293.7,635.73,20352.0,4.9135e-05,3.2084,6.332,143.88,23.479,42.06,595.29,-0.0083513,49.192,0.069477,supercritical,O2,C7782447,oxygen,154.58,50.43,13.6,0.07352941176470588,1.9,12.606186793575253,0.000668236
293.7,637.09,20374.0,4.9083e-05,3.2055,6.3325,143.85,23.481,42.053,595.96,-0.0085079,49.255,0.069562,supercritical,O2,C7782447,oxygen,154.58,50.43,13.6,0.07352941176470588,1.9,12.633154868134048,0.0006675288
293.7,638.46,20395.0,4.9031e-05,3.2026,6.333,143.83,23.484,42.046,596.64,-0.0086637,49.317,0.069647,supercritical,O2,C7782447,oxygen,154.58,50.43,13.6,0.07352941176470588,1.9,12.660321237358716,0.0006668215999999999
293.7,639.82,20417.0,4.898e-05,3.1997,6.3335,143.81,23.486,42.039,597.32,-0.0088187,49.379,0.069731,supercritical,O2,C7782447,oxygen,154.58,50.43,13.6,0.07352941176470588,1.9,12.68728931191751,0.000666128
293.7,641.18,20438.0,4.8929e-05,3.1968,6.334,143.79,23.488,42.033,597.99,-0.008973,49.441,0.069816,supercritical,O2,C7782447,oxygen,154.58,50.43,13.6,0.07352941176470588,1.9,12.714257386476303,0.0006654343999999999
293.7,642.55,20459.0,4.8878e-05,3.1939,6.3346,143.77,23.491,42.026,598.67,-0.0091265,49.503,0.070064,supercritical,O2,C7782447,oxygen,154.58,50.43,13.6,0.07352941176470588,1.9,12.741423755700971,0.0006647408
293.7,643.91,20481.0,4.8827e-05,3.191,6.3351,143.75,23.493,42.019,599.34,-0.0092792,49.565,0.070149,supercritical,O2,C7782447,oxygen,154.58,50.43,13.6,0.07352941176470588,1.9,12.768391830259766,0.0006640471999999999
293.7,645.28,20502.0,4.8776e-05,3.1882,6.3356,143.73,23.496,42.013,600.02,-0.0094311,49.628,0.070234,supercritical,O2,C7782447,oxygen,154.58,50.43,13.6,0.07352941176470588,1.9,12.795558199484434,0.0006633536
293.7,646.64,20523.0,4.8726e-05,3.1853,6.3362,143.71,23.498,42.006,600.69,-0.0095823,49.69,0.070319,supercritical,O2,C7782447,oxygen,154.58,50.43,13.6,0.07352941176470588,1.9,12.822526274043229,0.0006626736
293.7,648.01,20544.0,4.8676e-05,3.1825,6.3367,143.69,23.5,41.999,601.36,-0.0097328,49.752,0.070404,supercritical,O2,C7782447,oxygen,154.58,50.43,13.6,0.07352941176470588,1.9,12.849692643267897,0.0006619935999999999
293.7,649.38,20565.0,4.8626e-05,3.1796,6.3373,143.67,23.503,41.993,602.04,-0.0098825,49.814,0.070489,supercritical,O2,C7782447,oxygen,154.58,50.43,13.6,0.07352941176470588,1.9,12.876859012492565,0.0006613136
293.7,650.74,20586.0,4.8577e-05,3.1768,6.3378,143.65,23.505,41.986,602.71,-0.010031,49.876,0.070574,supercritical,O2,C7782447,oxygen,154.58,50.43,13.6,0.07352941176470588,1.9,12.903827087051358,0.0006606472