Temperature (K),Pressure (bar),Density (mol/m3),Volume (m3/mol),Internal Energy (kJ/mol),Enthalpy (kJ/mol),Entropy (J/mol*K),Cv (J/mol*K),Cp (J/mol*K),Sound Spd. (m/s),Joule-Thomson (K/bar),Viscosity (uPa*s),Therm. Cond. (W/m*K),Phase,substance,substance_id,substance_name,Tc,Pc,rhoc,Vmc,Tr,Pr,Vmr
273.76,684.42,25854.0,3.8679e-05,6.3921,9.0393,34.982,41.804,74.574,1020.7,-0.021225,194.78,0.16884,liquid,CO2,C124389,carbon-dioxide,304.18,73.8,10.6,0.09433962264150944,0.9,9.273983739837398,0.00040999739999999997
273.76,686.88,25863.0,3.8665e-05,6.3874,9.0432,34.961,41.809,74.548,1021.8,-0.021278,195.07,0.169,liquid,CO2,C124389,carbon-dioxide,304.18,73.8,10.6,0.09433962264150944,0.9,9.307317073170733,0.000409849
273.76,689.33,25873.0,3.8651e-05,6.3828,9.0471,34.941,41.814,74.523,1022.9,-0.02133,195.36,0.16916,liquid,CO2,C124389,carbon-dioxide,304.18,73.8,10.6,0.09433962264150944,0.9,9.340514905149053,0.00040970059999999997
273.76,691.79,25882.0,3.8637e-05,6.3782,9.051,34.92,41.819,74.499,1024.0,-0.021382,195.64,0.16931,liquid,CO2,C124389,carbon-dioxide,304.18,73.8,10.6,0.09433962264150944,0.9,9.373848238482385,0.0004095522
273.76,694.25,25892.0,3.8622e-05,6.3736,9.055,34.9,41.823,74.474,1025.0,-0.021434,195.93,0.16947,liquid,CO2,C124389,carbon-dioxide,304.18,73.8,10.6,0.09433962264150944,0.9,9.407181571815718,0.00040939319999999993
273.76,696.71,25901.0,3.8608e-05,6.369,9.0589,34.879,41.828,74.449,1026.1,-0.021485,196.22,0.16963,liquid,CO2,C124389,carbon-dioxide,304.18,73.8,10.6,0.09433962264150944,0.9,9.440514905149053,0.00040924479999999996
273.76,699.17,25911.0,3.8594e-05,6.3644,9.0628,34.859,41.833,74.425,1027.2,-0.021537,196.5,0.16978,liquid,CO2,C124389,carbon-dioxide,304.18,73.8,10.6,0.09433962264150944,0.9,9.473848238482384,0.00040909639999999993
273.76,701.63,25920.0,3.858e-05,6.3599,9.0668,34.839,41.838,74.4,1028.2,-0.021587,196.79,0.16994,liquid,CO2,C124389,carbon-dioxide,304.18,73.8,10.6,0.09433962264150944,0.9,9.50718157181572,0.00040894799999999996
273.76,704.08,25929.0,3.8566e-05,6.3553,9.0707,34.819,41.843,74.376,1029.3,-0.021638,197.07,0.1701,liquid,CO2,C124389,carbon-dioxide,304.18,73.8,10.6,0.09433962264150944,0.9,9.54037940379404,0.0004087996
273.76,706.54,25939.0,3.8552e-05,6.3508,9.0747,34.799,41.848,74.352,1030.3,-0.021688,197.36,0.17025,liquid,CO2,C124389,carbon-dioxide,304.18,73.8,10.6,0.09433962264150944,0.9,9.573712737127371,0.00040865119999999996
273.76,709.0,25948.0,3.8538e-05,6.3463,9.0787,34.778,41.853,74.328,1031.4,-0.021738,197.64,0.17041,liquid,CO2,C124389,carbon-dioxide,304.18,73.8,10.6,0.09433962264150944,0.9,9.607046070460704,0.0004085028
273.76,711.46,25957.0,3.8525e-05,6.3418,9.0826,34.758,41.858,74.305,1032.4,-0.021788,197.93,0.17056,liquid,CO2,C124389,carbon-dioxide,304.18,73.8,10.6,0.09433962264150944,0.9,9.64037940379404,0.000408365
273.76,713.92,25967.0,3.8511e-05,6.3373,9.0866,34.738,41.863,74.281,1033.5,-0.021838,198.21,0.17072,liquid,CO2,C124389,carbon-dioxide,304.18,73.8,10.6,0.09433962264150944,0.9,9.67371273712737,0.00040821659999999997
273.76,716.38,25976.0,3.8497e-05,6.3328,9.0906,34.718,41.868,74.258,1034.5,-0.021887,198.49,0.17087,liquid,CO2,C124389,carbon-dioxide,304.18,73.8,10.6,0.09433962264150944,0.9,9.707046070460706,0.0004080682
273.76,718.83,25985.0,3.8483e-05,6.3283,9.0946,34.698,41.873,74.234,1035.6,-0.021936,198.78,0.17103,liquid,CO2,C124389,carbon-dioxide,304.18,73.8,10.6,0.09433962264150944,0.9,9.740243902439026,0.0004079197999999999
273.76,721.29,25994.0,3.847e-05,6.3238,9.0986,34.678,41.878,74.211,1036.6,-0.021985,199.06,0.17118,liquid,CO2,C124389,carbon-dioxide,304.18,73.8,10.6,0.09433962264150944,0.9,9.773577235772358,0.000407782
273.76,723.75,26004.0,3.8456e-05,6.3194,9.1026,34.659,41.883,74.188,1037.7,-0.022033,199.35,0.17134,liquid,CO2,C124389,carbon-dioxide,304.18,73.8,10.6,0.09433962264150944,0.9,9.80691056910569,0.00040763359999999995
273.76,726.21,26013.0,3.8443e-05,6.3149,9.1066,34.639,41.888,74.165,1038.7,-0.022081,199.63,0.17149,liquid,CO2,C124389,carbon-dioxide,304.18,73.8,10.6,0.09433962264150944,0.9,9.840243902439026,0.00040749579999999996
273.76,728.67,26022.0,3.8429e-05,6.3105,9.1107,34.619,41.893,74.142,1039.8,-0.022129,199.91,0.17165,liquid,CO2,C124389,carbon-dioxide,304.18,73.8,10.6,0.09433962264150944,0.9,9.873577235772357,0.0004073474
273.76,731.13,26031.0,3.8416e-05,6.3061,9.1147,34.599,41.898,74.119,1040.8,-0.022177,200.2,0.1718,liquid,CO2,C124389,carbon-dioxide,304.18,73.8,10.6,0.09433962264150944,0.9,9.906910569105692,0.00040720959999999994
273.76,733.58,26040.0,3.8402e-05,6.3016,9.1188,34.579,41.903,74.097,1041.8,-0.022224,200.48,0.17195,liquid,CO2,C124389,carbon-dioxide,304.18,73.8,10.6,0.09433962264150944,0.9,9.940108401084013,0.0004070612
273.76,736.04,26049.0,3.8389e-05,6.2972,9.1228,34.56,41.908,74.074,1042.9,-0.022271,200.76,0.17211,liquid,CO2,C124389,carbon-dioxide,304.18,73.8,10.6,0.09433962264150944,0.9,9.973441734417344,0.0004069234
273.76,738.5,26058.0,3.8375e-05,6.2928,9.1269,34.54,41.913,74.052,1043.9,-0.022318,201.04,0.17226,liquid,CO2,C124389,carbon-dioxide,304.18,73.8,10.6,0.09433962264150944,0.9,10.006775067750677,0.00040677499999999995
273.76,740.96,26067.0,3.8362e-05,6.2885,9.1309,34.521,41.918,74.03,1044.9,-0.022365,201.33,0.17242,liquid,CO2,C124389,carbon-dioxide,304.18,73.8,10.6,0.09433962264150944,0.9,10.040108401084012,0.0004066372
273.76,743.42,26076.0,3.8349e-05,6.2841,9.135,34.501,41.923,74.008,1046.0,-0.022411,201.61,0.17257,liquid,CO2,C124389,carbon-dioxide,304.18,73.8,10.6,0.09433962264150944,0.9,10.073441734417344,0.00040649939999999997
273.76,745.88,26085.0,3.8336e-05,6.2797,9.1391,34.481,41.928,73.986,1047.0,-0.022457,201.89,0.17272,liquid,CO2,C124389,carbon-dioxide,304.18,73.8,10.6,0.09433962264150944,0.9,10.106775067750679,0.0004063616
273.76,748.33,26094.0,3.8322e-05,6.2754,9.1432,34.462,41.933,73.964,1048.0,-0.022503,202.17,0.17288,liquid,CO2,C124389,carbon-dioxide,304.18,73.8,10.6,0.09433962264150944,0.9,10.139972899728999,0.00040621319999999995
273.76,750.79,26103.0,3.8309e-05,6.2711,9.1473,34.443,41.938,73.942,1049.0,-0.022549,202.46,0.17303,liquid,CO2,C124389,carbon-dioxide,304.18,73.8,10.6,0.09433962264150944,0.9,10.17330623306233,0.0004060754
273.76,753.25,26112.0,3.8296e-05,6.2667,9.1514,34.423,41.943,73.921,1050.0,-0.022594,202.74,0.17318,liquid,CO2,C124389,carbon-dioxide,304.18,73.8,10.6,0.09433962264150944,0.9,10.206639566395664,0.0004059376
273.76,755.71,26121.0,3.8283e-05,6.2624,9.1555,34.404,41.948,73.899,1051.1,-0.022639,203.02,0.17333,liquid,CO2,C124389,carbon-dioxide,304.18,73.8,10.6,0.09433962264150944,0.9,10.239972899728999,0.0004057998
273.76,758.17,26130.0,3.827e-05,6.2581,9.1596,34.384,41.953,73.878,1052.1,-0.022684,203.3,0.17348,liquid,CO2,C124389,carbon-dioxide,304.18,73.8,10.6,0.09433962264150944,0.9,10.27330623306233,0.00040566199999999994
273.76,760.63,26139.0,3.8257e-05,6.2538,9.1637,34.365,41.958,73.857,1053.1,-0.022729,203.58,0.17364,liquid,CO2,C124389,carbon-dioxide,304.18,73.8,10.6,0.09433962264150944,0.9,10.306639566395665,0.0004055242
273.76,763.08,26148.0,3.8244e-05,6.2495,9.1679,34.346,41.962,73.836,1054.1,-0.022773,203.86,0.17379,liquid,CO2,C124389,carbon-dioxide,304.18,73.8,10.6,0.09433962264150944,0.9,10.339837398373986,0.0004053864
273.76,765.54,26157.0,3.8231e-05,6.2452,9.172,34.327,41.967,73.815,1055.1,-0.022817,204.14,0.17394,liquid,CO2,C124389,carbon-dioxide,304.18,73.8,10.6,0.09433962264150944,0.9,10.373170731707317,0.00040524859999999997
273.76,768.0,26166.0,3.8218e-05,6.241,9.1761,34.307,41.972,73.794,1056.1,-0.022861,204.42,0.17409,liquid,CO2,C124389,carbon-dioxide,304.18,73.8,10.6,0.09433962264150944,0.9,10.40650406504065,0.0004051108
273.76,770.46,26174.0,3.8205e-05,6.2367,9.1803,34.288,41.977,73.773,1057.1,-0.022905,204.7,0.17424,liquid,CO2,C124389,carbon-dioxide,304.18,73.8,10.6,0.09433962264150944,0.9,10.439837398373985,0.00040497299999999993
273.76,772.92,26183.0,3.8193e-05,6.2325,9.1844,34.269,41.982,73.752,1058.1,-0.022948,204.98,0.17439,liquid,CO2,C124389,carbon-dioxide,304.18,73.8,10.6,0.09433962264150944,0.9,10.473170731707317,0.0004048458
273.76,775.38,26192.0,3.818e-05,6.2282,9.1886,34.25,41.987,73.732,1059.1,-0.022992,205.26,0.17454,liquid,CO2,C124389,carbon-dioxide,304.18,73.8,10.6,0.09433962264150944,0.9,10.506504065040652,0.00040470799999999993
273.76,777.83,26201.0,3.8167e-05,6.224,9.1928,34.231,41.992,73.711,1060.1,-0.023035,205.54,0.1747,liquid,CO2,C124389,carbon-dioxide,304.18,73.8,10.6,0.09433962264150944,0.9,10.539701897018972,0.0004045702
273.76,780.29,26209.0,3.8154e-05,6.2198,9.197,34.212,41.997,73.691,1061.1,-0.023078,205.82,0.17485,liquid,CO2,C124389,carbon-dioxide,304.18,73.8,10.6,0.09433962264150944,0.9,10.573035230352303,0.0004044324
273.76,782.75,26218.0,3.8142e-05,6.2156,9.2011,34.193,42.002,73.671,1062.1,-0.02312,206.1,0.175,liquid,CO2,C124389,carbon-dioxide,304.18,73.8,10.6,0.09433962264150944,0.9,10.606368563685637,0.0004043052
273.76,785.21,26227.0,3.8129e-05,6.2114,9.2053,34.174,42.007,73.651,1063.1,-0.023163,206.38,0.17515,liquid,CO2,C124389,carbon-dioxide,304.18,73.8,10.6,0.09433962264150944,0.9,10.639701897018972,0.00040416739999999995
273.76,787.67,26235.0,3.8117e-05,6.2072,9.2095,34.155,42.012,73.631,1064.1,-0.023205,206.66,0.1753,liquid,CO2,C124389,carbon-dioxide,304.18,73.8,10.6,0.09433962264150944,0.9,10.673035230352303,0.0004040402
273.76,790.12,26244.0,3.8104e-05,6.203,9.2137,34.136,42.017,73.611,1065.1,-0.023247,206.94,0.17545,liquid,CO2,C124389,carbon-dioxide,304.18,73.8,10.6,0.09433962264150944,0.9,10.706233062330623,0.00040390239999999996
273.76,792.58,26253.0,3.8091e-05,6.1989,9.2179,34.118,42.022,73.591,1066.1,-0.023289,207.22,0.1756,liquid,CO2,C124389,carbon-dioxide,304.18,73.8,10.6,0.09433962264150944,0.9,10.739566395663958,0.00040376459999999997
273.76,795.04,26261.0,3.8079e-05,6.1947,9.2222,34.099,42.027,73.571,1067.1,-0.02333,207.5,0.17574,liquid,CO2,C124389,carbon-dioxide,304.18,73.8,10.6,0.09433962264150944,0.9,10.77289972899729,0.00040363739999999996
273.76,797.5,26270.0,3.8067e-05,6.1906,9.2264,34.08,42.032,73.552,1068.0,-0.023371,207.78,0.17589,liquid,CO2,C124389,carbon-dioxide,304.18,73.8,10.6,0.09433962264150944,0.9,10.806233062330623,0.00040351019999999995
273.76,799.96,26278.0,3.8054e-05,6.1864,9.2306,34.061,42.037,73.532,1069.0,-0.023413,208.06,0.17604,liquid,CO2,C124389,carbon-dioxide,304.18,73.8,10.6,0.09433962264150944,0.9,10.839566395663958,0.00040337239999999996
273.76,802.42,26287.0,3.8042e-05,6.1823,9.2348,34.043,42.042,73.513,1070.0,-0.023453,208.34,0.17619,liquid,CO2,C124389,carbon-dioxide,304.18,73.8,10.6,0.09433962264150944,0.9,10.87289972899729,0.00040324519999999995
273.76,804.87,26295.0,3.8029e-05,6.1782,9.2391,34.024,42.047,73.493,1071.0,-0.023494,208.61,0.17634,liquid,CO2,C124389,carbon-dioxide,304.18,73.8,10.6,0.09433962264150944,0.9,10.90609756097561,0.00040310739999999996
273.76,807.33,26304.0,3.8017e-05,6.1741,9.2433,34.005,42.052,73.474,1072.0,-0.023535,208.89,0.17649,liquid,CO2,C124389,carbon-dioxide,304.18,73.8,10.6,0.09433962264150944,0.9,10.939430894308945,0.00040298019999999995
273.76,809.79,26312.0,3.8005e-05,6.17,9.2476,33.987,42.057,73.455,1072.9,-0.023575,209.17,0.17664,liquid,CO2,C124389,carbon-dioxide,304.18,73.8,10.6,0.09433962264150944,0.9,10.972764227642276,0.00040285299999999995
273.76,812.25,26321.0,3.7993e-05,6.1659,9.2518,33.968,42.062,73.436,1073.9,-0.023615,209.45,0.17679,liquid,CO2,C124389,carbon-dioxide,304.18,73.8,10.6,0.09433962264150944,0.9,11.00609756097561,0.0004027258
273.76,814.71,26329.0,3.7981e-05,6.1618,9.2561,33.95,42.067,73.417,1074.9,-0.023655,209.73,0.17693,liquid,CO2,C124389,carbon-dioxide,304.18,73.8,10.6,0.09433962264150944,0.9,11.039430894308945,0.0004025986
273.76,817.17,26338.0,3.7968e-05,6.1577,9.2604,33.931,42.072,73.398,1075.9,-0.023695,210.0,0.17708,liquid,CO2,C124389,carbon-dioxide,304.18,73.8,10.6,0.09433962264150944,0.9,11.072764227642276,0.0004024608
273.76,819.62,26346.0,3.7956e-05,6.1537,9.2647,33.913,42.077,73.38,1076.8,-0.023734,210.28,0.17723,liquid,CO2,C124389,carbon-dioxide,304.18,73.8,10.6,0.09433962264150944,0.9,11.105962059620596,0.0004023336
273.76,822.08,26355.0,3.7944e-05,6.1496,9.269,33.894,42.082,73.361,1077.8,-0.023773,210.56,0.17738,liquid,CO2,C124389,carbon-dioxide,304.18,73.8,10.6,0.09433962264150944,0.9,11.139295392953931,0.0004022064
273.76,824.54,26363.0,3.7932e-05,6.1456,9.2732,33.876,42.087,73.343,1078.8,-0.023813,210.84,0.17752,liquid,CO2,C124389,carbon-dioxide,304.18,73.8,10.6,0.09433962264150944,0.9,11.172628726287263,0.00040207919999999997
273.76,827.0,26371.0,3.792e-05,6.1415,9.2775,33.857,42.092,73.324,1079.7,-0.023851,211.11,0.17767,liquid,CO2,C124389,carbon-dioxide,304.18,73.8,10.6,0.09433962264150944,0.9,11.205962059620596,0.000401952
273.76,829.46,26380.0,3.7908e-05,6.1375,9.2818,33.839,42.097,73.306,1080.7,-0.02389,211.39,0.17782,liquid,CO2,C124389,carbon-dioxide,304.18,73.8,10.6,0.09433962264150944,0.9,11.239295392953931,0.00040182479999999995
273.76,831.92,26388.0,3.7896e-05,6.1335,9.2861,33.821,42.102,73.288,1081.6,-0.023929,211.67,0.17796,liquid,CO2,C124389,carbon-dioxide,304.18,73.8,10.6,0.09433962264150944,0.9,11.272628726287262,0.00040169759999999995
273.76,834.37,26396.0,3.7884e-05,6.1295,9.2905,33.803,42.107,73.27,1082.6,-0.023967,211.94,0.17811,liquid,CO2,C124389,carbon-dioxide,304.18,73.8,10.6,0.09433962264150944,0.9,11.305826558265583,0.00040157039999999994
273.76,836.83,26404.0,3.7872e-05,6.1255,9.2948,33.784,42.112,73.251,1083.6,-0.024005,212.22,0.17826,liquid,CO2,C124389,carbon-dioxide,304.18,73.8,10.6,0.09433962264150944,0.9,11.339159891598918,0.0004014432
273.76,839.29,26413.0,3.7861e-05,6.1215,9.2991,33.766,42.117,73.234,1084.5,-0.024043,212.5,0.1784,liquid,CO2,C124389,carbon-dioxide,304.18,73.8,10.6,0.09433962264150944,0.9,11.37249322493225,0.0004013266
273.76,841.75,26421.0,3.7849e-05,6.1175,9.3034,33.748,42.122,73.216,1085.5,-0.024081,212.77,0.17855,liquid,CO2,C124389,carbon-dioxide,304.18,73.8,10.6,0.09433962264150944,0.9,11.405826558265582,0.0004011994
273.76,844.21,26429.0,3.7837e-05,6.1136,9.3078,33.73,42.127,73.198,1086.4,-0.024119,213.05,0.1787,liquid,CO2,C124389,carbon-dioxide,304.18,73.8,10.6,0.09433962264150944,0.9,11.439159891598917,0.00040107219999999994
273.76,846.67,26437.0,3.7825e-05,6.1096,9.3121,33.712,42.132,73.18,1087.4,-0.024156,213.32,0.17884,liquid,CO2,C124389,carbon-dioxide,304.18,73.8,10.6,0.09433962264150944,0.9,11.472493224932249,0.00040094499999999994
273.76,849.12,26446.0,3.7813e-05,6.1056,9.3165,33.694,42.137,73.163,1088.3,-0.024193,213.6,0.17899,liquid,CO2,C124389,carbon-dioxide,304.18,73.8,10.6,0.09433962264150944,0.9,11.50569105691057,0.0004008178
273.76,851.58,26454.0,3.7802e-05,6.1017,9.3208,33.676,42.142,73.145,1089.3,-0.02423,213.88,0.17913,liquid,CO2,C124389,carbon-dioxide,304.18,73.8,10.6,0.09433962264150944,0.9,11.539024390243904,0.0004007012
273.76,854.04,26462.0,3.779e-05,6.0978,9.3252,33.658,42.147,73.128,1090.2,-0.024267,214.15,0.17928,liquid,CO2,C124389,carbon-dioxide,304.18,73.8,10.6,0.09433962264150944,0.9,11.572357723577236,0.000400574
273.76,856.5,26470.0,3.7778e-05,6.0938,9.3295,33.64,42.152,73.11,1091.1,-0.024304,214.43,0.17942,liquid,CO2,C124389,carbon-dioxide,304.18,73.8,10.6,0.09433962264150944,0.9,11.605691056910569,0.0004004468
273.76,858.96,26478.0,3.7767e-05,6.0899,9.3339,33.622,42.157,73.093,1092.1,-0.02434,214.7,0.17957,liquid,CO2,C124389,carbon-dioxide,304.18,73.8,10.6,0.09433962264150944,0.9,11.639024390243904,0.00040033019999999997
273.76,861.42,26486.0,3.7755e-05,6.086,9.3383,33.604,42.162,73.076,1093.0,-0.024377,214.98,0.17971,liquid,CO2,C124389,carbon-dioxide,304.18,73.8,10.6,0.09433962264150944,0.9,11.672357723577235,0.00040020299999999996
273.76,863.87,26494.0,3.7744e-05,6.0821,9.3427,33.586,42.167,73.059,1094.0,-0.024413,215.25,0.17986,liquid,CO2,C124389,carbon-dioxide,304.18,73.8,10.6,0.09433962264150944,0.9,11.705555555555556,0.0004000864
273.76,866.33,26503.0,3.7732e-05,6.0782,9.3471,33.568,42.172,73.042,1094.9,-0.024449,215.53,0.18,liquid,CO2,C124389,carbon-dioxide,304.18,73.8,10.6,0.09433962264150944,0.9,11.73888888888889,0.00039995919999999993
273.76,868.79,26511.0,3.7721e-05,6.0743,9.3515,33.55,42.177,73.025,1095.8,-0.024485,215.8,0.18015,liquid,CO2,C124389,carbon-dioxide,304.18,73.8,10.6,0.09433962264150944,0.9,11.772222222222222,0.00039984259999999996
273.76,871.25,26519.0,3.7709e-05,6.0704,9.3559,33.532,42.182,73.008,1096.8,-0.02452,216.08,0.18029,liquid,CO2,C124389,carbon-dioxide,304.18,73.8,10.6,0.09433962264150944,0.9,11.805555555555555,0.0003997154
273.76,873.71,26527.0,3.7698e-05,6.0666,9.3603,33.515,42.187,72.992,1097.7,-0.024556,216.35,0.18043,liquid,CO2,C124389,carbon-dioxide,304.18,73.8,10.6,0.09433962264150944,0.9,11.83888888888889,0.0003995987999999999
273.76,876.17,26535.0,3.7687e-05,6.0627,9.3647,33.497,42.192,72.975,1098.6,-0.024591,216.63,0.18058,liquid,CO2,C124389,carbon-dioxide,304.18,73.8,10.6,0.09433962264150944,0.9,11.872222222222222,0.00039948219999999995
273.76,878.62,26543.0,3.7675e-05,6.0588,9.3691,33.479,42.197,72.958,1099.6,-0.024626,216.9,0.18072,liquid,CO2,C124389,carbon-dioxide,304.18,73.8,10.6,0.09433962264150944,0.9,11.905420054200542,0.000399355
273.76,881.08,26551.0,3.7664e-05,6.055,9.3735,33.461,42.202,72.942,1100.5,-0.024661,217.17,0.18087,liquid,CO2,C124389,carbon-dioxide,304.18,73.8,10.6,0.09433962264150944,0.9,11.938753387533877,0.0003992383999999999
273.76,883.54,26559.0,3.7653e-05,6.0512,9.3779,33.444,42.207,72.925,1101.4,-0.024696,217.45,0.18101,liquid,CO2,C124389,carbon-dioxide,304.18,73.8,10.6,0.09433962264150944,0.9,11.972086720867209,0.00039912179999999995
273.76,886.0,26567.0,3.7641e-05,6.0473,9.3824,33.426,42.212,72.909,1102.3,-0.024731,217.72,0.18115,liquid,CO2,C124389,carbon-dioxide,304.18,73.8,10.6,0.09433962264150944,0.9,12.005420054200542,0.0003989946
273.76,888.46,26575.0,3.763e-05,6.0435,9.3868,33.409,42.217,72.893,1103.3,-0.024765,218.0,0.1813,liquid,CO2,C124389,carbon-dioxide,304.18,73.8,10.6,0.09433962264150944,0.9,12.038753387533877,0.0003988779999999999
273.76,890.92,26582.0,3.7619e-05,6.0397,9.3912,33.391,42.222,72.877,1104.2,-0.0248,218.27,0.18144,liquid,CO2,C124389,carbon-dioxide,304.18,73.8,10.6,0.09433962264150944,0.9,12.072086720867208,0.00039876139999999995
273.76,893.37,26590.0,3.7608e-05,6.0359,9.3957,33.373,42.227,72.861,1105.1,-0.024834,218.54,0.18158,liquid,CO2,C124389,carbon-dioxide,304.18,73.8,10.6,0.09433962264150944,0.9,12.105284552845529,0.00039864480000000003
273.76,895.83,26598.0,3.7597e-05,6.0321,9.4001,33.356,42.232,72.845,1106.0,-0.024868,218.82,0.18172,liquid,CO2,C124389,carbon-dioxide,304.18,73.8,10.6,0.09433962264150944,0.9,12.138617886178864,0.00039852819999999995
273.76,898.29,26606.0,3.7585e-05,6.0283,9.4046,33.338,42.237,72.829,1106.9,-0.024902,219.09,0.18187,liquid,CO2,C124389,carbon-dioxide,304.18,73.8,10.6,0.09433962264150944,0.9,12.171951219512195,0.000398401
273.76,900.75,26614.0,3.7574e-05,6.0245,9.409,33.321,42.242,72.813,1107.8,-0.024935,219.36,0.18201,liquid,CO2,C124389,carbon-dioxide,304.18,73.8,10.6,0.09433962264150944,0.9,12.205284552845528,0.0003982844
273.76,903.21,26622.0,3.7563e-05,6.0208,9.4135,33.304,42.247,72.797,1108.7,-0.024969,219.64,0.18215,liquid,CO2,C124389,carbon-dioxide,304.18,73.8,10.6,0.09433962264150944,0.9,12.238617886178863,0.00039816779999999995
273.76,905.67,26630.0,3.7552e-05,6.017,9.418,33.286,42.252,72.781,1109.7,-0.025002,219.91,0.18229,liquid,CO2,C124389,carbon-dioxide,304.18,73.8,10.6,0.09433962264150944,0.9,12.271951219512195,0.0003980512
273.76,908.12,26637.0,3.7541e-05,6.0132,9.4225,33.269,42.257,72.766,1110.6,-0.025035,220.18,0.18244,liquid,CO2,C124389,carbon-dioxide,304.18,73.8,10.6,0.09433962264150944,0.9,12.305149051490515,0.00039793459999999995
273.76,910.58,26645.0,3.753e-05,6.0095,9.4269,33.251,42.262,72.75,1111.5,-0.025069,220.45,0.18258,liquid,CO2,C124389,carbon-dioxide,304.18,73.8,10.6,0.09433962264150944,0.9,12.33848238482385,0.000397818