Temperature (K),Pressure (bar),Density (mol/m3),Volume (m3/mol),Internal Energy (kJ/mol),Enthalpy (kJ/mol),Entropy (J/mol*K),Cv (J/mol*K),Cp (J/mol*K),Sound Spd. (m/s),Joule-Thomson (K/bar),Viscosity (uPa*s),Therm. Cond. (W/m*K),Phase,substance,substance_id,substance_name,Tc,Pc,rhoc,Vmc,Tr,Pr,Vmr
1164.6,3897.6,31946.0,3.1303e-05,54.868,67.069,97.581,44.487,65.726,1388.9,0.0012119,79.638,0.53712,supercritical,H2O,C7732185,water,647.0,220.64,17.9,0.0558659217877095,1.8000000000000003,17.664974619289342,0.0005603237
1164.6,3905.0,31977.0,3.1273e-05,54.856,67.068,97.561,44.493,65.72,1390.1,0.0011503,79.698,0.53773,supercritical,H2O,C7732185,water,647.0,220.64,17.9,0.0558659217877095,1.8000000000000003,17.698513415518494,0.0005597866999999999
1164.6,3912.3,32008.0,3.1242e-05,54.845,67.068,97.541,44.499,65.715,1391.3,0.001089,79.758,0.53833,supercritical,H2O,C7732185,water,647.0,220.64,17.9,0.0558659217877095,1.8000000000000003,17.731598984771576,0.0005592317999999999
1164.6,3919.7,32039.0,3.1212e-05,54.833,67.067,97.521,44.505,65.709,1392.5,0.0010279,79.818,0.53894,supercritical,H2O,C7732185,water,647.0,220.64,17.9,0.0558659217877095,1.8000000000000003,17.765137781000725,0.0005586947999999999
1164.6,3927.0,32070.0,3.1182e-05,54.822,67.067,97.501,44.511,65.704,1393.7,0.00096706,79.878,0.53954,supercritical,H2O,C7732185,water,647.0,220.64,17.9,0.0558659217877095,1.8000000000000003,17.798223350253807,0.0005581577999999999
1164.6,3934.4,32101.0,3.1152e-05,54.81,67.066,97.481,44.517,65.698,1394.9,0.00090647,79.938,0.54015,supercritical,H2O,C7732185,water,647.0,220.64,17.9,0.0558659217877095,1.8000000000000003,17.83176214648296,0.0005576208
1164.6,3941.7,32132.0,3.1122e-05,54.799,67.066,97.461,44.523,65.693,1396.1,0.00084612,79.998,0.54075,supercritical,H2O,C7732185,water,647.0,220.64,17.9,0.0558659217877095,1.8000000000000003,17.86484771573604,0.0005570837999999999
1164.6,3949.1,32163.0,3.1092e-05,54.787,67.066,97.441,44.529,65.687,1397.3,0.00078601,80.058,0.54135,supercritical,H2O,C7732185,water,647.0,220.64,17.9,0.0558659217877095,1.8000000000000003,17.898386511965192,0.0005565467999999999
1164.6,3956.4,32194.0,3.1062e-05,54.776,67.065,97.421,44.535,65.682,1398.5,0.00072614,80.118,0.54196,supercritical,H2O,C7732185,water,647.0,220.64,17.9,0.0558659217877095,1.8000000000000003,17.931472081218274,0.0005560097999999999
1164.6,3963.8,32224.0,3.1033e-05,54.764,67.065,97.401,44.541,65.676,1399.6,0.00066651,80.178,0.54256,supercritical,H2O,C7732185,water,647.0,220.64,17.9,0.0558659217877095,1.8000000000000003,17.965010877447426,0.0005554907
1164.6,3971.1,32255.0,3.1003e-05,54.753,67.065,97.381,44.547,65.671,1400.8,0.00060712,80.237,0.54316,supercritical,H2O,C7732185,water,647.0,220.64,17.9,0.0558659217877095,1.8000000000000003,17.998096446700508,0.0005549537
1164.6,3978.4,32286.0,3.0974e-05,54.742,67.064,97.361,44.553,65.665,1402.0,0.00054795,80.297,0.54377,supercritical,H2O,C7732185,water,647.0,220.64,17.9,0.0558659217877095,1.8000000000000003,18.03118201595359,0.0005544345999999999
1164.6,3985.8,32316.0,3.0944e-05,54.73,67.064,97.342,44.559,65.66,1403.2,0.00048902,80.356,0.54437,supercritical,H2O,C7732185,water,647.0,220.64,17.9,0.0558659217877095,1.8000000000000003,18.064720812182742,0.0005538976
1164.6,3993.1,32347.0,3.0915e-05,54.719,67.064,97.322,44.565,65.654,1404.4,0.00043033,80.416,0.54497,supercritical,H2O,C7732185,water,647.0,220.64,17.9,0.0558659217877095,1.8000000000000003,18.097806381435824,0.0005533784999999999
1164.6,4000.5,32377.0,3.0886e-05,54.708,67.064,97.302,44.57,65.649,1405.6,0.00037186,80.475,0.54558,supercritical,H2O,C7732185,water,647.0,220.64,17.9,0.0558659217877095,1.8000000000000003,18.131345177664976,0.0005528594
1164.6,4007.8,32407.0,3.0857e-05,54.696,67.063,97.283,44.576,65.643,1406.8,0.00031361,80.534,0.54618,supercritical,H2O,C7732185,water,647.0,220.64,17.9,0.0558659217877095,1.8000000000000003,18.164430746918057,0.0005523403
1164.6,4015.2,32438.0,3.0828e-05,54.685,67.063,97.263,44.582,65.637,1407.9,0.0002556,80.593,0.54678,supercritical,H2O,C7732185,water,647.0,220.64,17.9,0.0558659217877095,1.8000000000000003,18.19796954314721,0.0005518211999999999
1164.6,4022.5,32468.0,3.08e-05,54.674,67.063,97.243,44.588,65.632,1409.1,0.00019781,80.653,0.54738,supercritical,H2O,C7732185,water,647.0,220.64,17.9,0.0558659217877095,1.8000000000000003,18.23105511240029,0.00055132
1164.6,4029.9,32498.0,3.0771e-05,54.663,67.063,97.224,44.594,65.626,1410.3,0.00014024,80.712,0.54798,supercritical,H2O,C7732185,water,647.0,220.64,17.9,0.0558659217877095,1.8000000000000003,18.264593908629443,0.0005508008999999999
1164.6,4037.2,32528.0,3.0742e-05,54.652,67.063,97.204,44.6,65.62,1411.5,8.2898e-05,80.771,0.54858,supercritical,H2O,C7732185,water,647.0,220.64,17.9,0.0558659217877095,1.8000000000000003,18.297679477882525,0.0005502818
1164.6,4044.6,32558.0,3.0714e-05,54.64,67.063,97.185,44.606,65.615,1412.6,2.5774e-05,80.83,0.54918,supercritical,H2O,C7732185,water,647.0,220.64,17.9,0.0558659217877095,1.8000000000000003,18.331218274111677,0.0005497805999999999
1164.6,4051.9,32588.0,3.0686e-05,54.629,67.063,97.166,44.612,65.609,1413.8,-3.113e-05,80.888,0.54978,supercritical,H2O,C7732185,water,647.0,220.64,17.9,0.0558659217877095,1.8000000000000003,18.36430384336476,0.0005492793999999999
1164.6,4059.3,32618.0,3.0657e-05,54.618,67.063,97.146,44.617,65.603,1415.0,-8.7816e-05,80.947,0.55038,supercritical,H2O,C7732185,water,647.0,220.64,17.9,0.0558659217877095,1.8000000000000003,18.39784263959391,0.0005487603
1164.6,4066.6,32648.0,3.0629e-05,54.607,67.063,97.127,44.623,65.597,1416.2,-0.00014428,81.006,0.55098,supercritical,H2O,C7732185,water,647.0,220.64,17.9,0.0558659217877095,1.8000000000000003,18.430928208846993,0.0005482591
1164.6,4074.0,32678.0,3.0601e-05,54.596,67.063,97.108,44.629,65.592,1417.3,-0.00020054,81.065,0.55158,supercritical,H2O,C7732185,water,647.0,220.64,17.9,0.0558659217877095,1.8000000000000003,18.464467005076145,0.0005477578999999999
1164.6,4081.3,32708.0,3.0573e-05,54.585,67.063,97.089,44.635,65.586,1418.5,-0.00025658,81.123,0.55218,supercritical,H2O,C7732185,water,647.0,220.64,17.9,0.0558659217877095,1.8000000000000003,18.497552574329227,0.0005472567
1164.6,4088.7,32738.0,3.0546e-05,54.574,67.063,97.069,44.641,65.58,1419.7,-0.00031241,81.182,0.55278,supercritical,H2O,C7732185,water,647.0,220.64,17.9,0.0558659217877095,1.8000000000000003,18.531091370558375,0.0005467734
1164.6,4096.0,32768.0,3.0518e-05,54.563,67.064,97.05,44.647,65.574,1420.9,-0.00036802,81.24,0.55338,supercritical,H2O,C7732185,water,647.0,220.64,17.9,0.0558659217877095,1.8000000000000003,18.56417693981146,0.0005462722
1164.6,4103.4,32797.0,3.049e-05,54.552,67.064,97.031,44.652,65.569,1422.0,-0.00042343,81.298,0.55398,supercritical,H2O,C7732185,water,647.0,220.64,17.9,0.0558659217877095,1.8000000000000003,18.59771573604061,0.000545771
1164.6,4110.7,32827.0,3.0463e-05,54.542,67.064,97.012,44.658,65.563,1423.2,-0.00047862,81.357,0.55458,supercritical,H2O,C7732185,water,647.0,220.64,17.9,0.0558659217877095,1.8000000000000003,18.63080130529369,0.0005452877
1164.6,4118.1,32856.0,3.0436e-05,54.531,67.064,96.993,44.664,65.557,1424.4,-0.00053361,81.415,0.55517,supercritical,H2O,C7732185,water,647.0,220.64,17.9,0.0558659217877095,1.8000000000000003,18.664340101522846,0.0005448044
1164.6,4125.4,32886.0,3.0408e-05,54.52,67.065,96.974,44.67,65.551,1425.5,-0.00058839,81.473,0.55577,supercritical,H2O,C7732185,water,647.0,220.64,17.9,0.0558659217877095,1.8000000000000003,18.697425670775925,0.0005443032
1164.6,4132.8,32915.0,3.0381e-05,54.509,67.065,96.955,44.675,65.545,1426.7,-0.00064297,81.531,0.55637,supercritical,H2O,C7732185,water,647.0,220.64,17.9,0.0558659217877095,1.8000000000000003,18.730964467005077,0.0005438199
1164.6,4140.1,32945.0,3.0354e-05,54.498,67.065,96.936,44.681,65.539,1427.8,-0.00069735,81.589,0.55697,supercritical,H2O,C7732185,water,647.0,220.64,17.9,0.0558659217877095,1.8000000000000003,18.764050036258162,0.0005433365999999999
1164.6,4147.5,32974.0,3.0327e-05,54.487,67.065,96.918,44.687,65.533,1429.0,-0.00075152,81.647,0.55756,supercritical,H2O,C7732185,water,647.0,220.64,17.9,0.0558659217877095,1.8000000000000003,18.79758883248731,0.0005428532999999999
1164.6,4154.8,33003.0,3.03e-05,54.477,67.066,96.899,44.693,65.527,1430.2,-0.00080549,81.705,0.55816,supercritical,H2O,C7732185,water,647.0,220.64,17.9,0.0558659217877095,1.8000000000000003,18.830674401740392,0.00054237
1164.6,4162.2,33032.0,3.0273e-05,54.466,67.066,96.88,44.698,65.522,1431.3,-0.00085926,81.763,0.55876,supercritical,H2O,C7732185,water,647.0,220.64,17.9,0.0558659217877095,1.8000000000000003,18.864213197969544,0.0005418866999999999
1164.6,4169.5,33062.0,3.0247e-05,54.455,67.067,96.861,44.704,65.516,1432.5,-0.00091283,81.82,0.55935,supercritical,H2O,C7732185,water,647.0,220.64,17.9,0.0558659217877095,1.8000000000000003,18.897298767222626,0.0005414212999999999
1164.6,4176.9,33091.0,3.022e-05,54.445,67.067,96.843,44.71,65.51,1433.6,-0.0009662,81.878,0.55995,supercritical,H2O,C7732185,water,647.0,220.64,17.9,0.0558659217877095,1.8000000000000003,18.930837563451774,0.0005409379999999999
1164.6,4184.2,33120.0,3.0194e-05,54.434,67.068,96.824,44.716,65.504,1434.8,-0.0010194,81.935,0.56055,supercritical,H2O,C7732185,water,647.0,220.64,17.9,0.0558659217877095,1.8000000000000003,18.96392313270486,0.0005404725999999999
1164.6,4191.5,33149.0,3.0167e-05,54.423,67.068,96.805,44.721,65.498,1436.0,-0.0010724,81.993,0.56114,supercritical,H2O,C7732185,water,647.0,220.64,17.9,0.0558659217877095,1.8000000000000003,18.99700870195794,0.0005399892999999999
1164.6,4198.9,33178.0,3.0141e-05,54.413,67.069,96.787,44.727,65.492,1437.1,-0.0011251,82.05,0.56174,supercritical,H2O,C7732185,water,647.0,220.64,17.9,0.0558659217877095,1.8000000000000003,19.03054749818709,0.0005395239
1164.6,4206.2,33207.0,3.0115e-05,54.402,67.069,96.768,44.733,65.486,1438.3,-0.0011777,82.108,0.56233,supercritical,H2O,C7732185,water,647.0,220.64,17.9,0.0558659217877095,1.8000000000000003,19.063633067440175,0.0005390585
1164.6,4213.6,33235.0,3.0088e-05,54.392,67.07,96.75,44.738,65.48,1439.4,-0.0012301,82.165,0.56293,supercritical,H2O,C7732185,water,647.0,220.64,17.9,0.0558659217877095,1.8000000000000003,19.097171863669328,0.0005385752
1164.6,4220.9,33264.0,3.0062e-05,54.381,67.07,96.731,44.744,65.474,1440.6,-0.0012823,82.222,0.56352,supercritical,H2O,C7732185,water,647.0,220.64,17.9,0.0558659217877095,1.8000000000000003,19.130257432922406,0.0005381098
1164.6,4228.3,33293.0,3.0036e-05,54.371,67.071,96.713,44.75,65.468,1441.7,-0.0013344,82.279,0.56412,supercritical,H2O,C7732185,water,647.0,220.64,17.9,0.0558659217877095,1.8000000000000003,19.16379622915156,0.0005376443999999999
1164.6,4235.6,33322.0,3.0011e-05,54.36,67.072,96.695,44.755,65.462,1442.9,-0.0013862,82.336,0.56471,supercritical,H2O,C7732185,water,647.0,220.64,17.9,0.0558659217877095,1.8000000000000003,19.196881798404643,0.0005371969
1164.6,4243.0,33350.0,2.9985e-05,54.35,67.072,96.676,44.761,65.456,1444.0,-0.0014378,82.393,0.56531,supercritical,H2O,C7732185,water,647.0,220.64,17.9,0.0558659217877095,1.8000000000000003,19.230420594633795,0.0005367315
1164.6,4250.3,33379.0,2.9959e-05,54.339,67.073,96.658,44.767,65.45,1445.2,-0.0014893,82.45,0.5659,supercritical,H2O,C7732185,water,647.0,220.64,17.9,0.0558659217877095,1.8000000000000003,19.263506163886877,0.0005362660999999999
1164.6,4257.7,33407.0,2.9934e-05,54.329,67.074,96.64,44.772,65.444,1446.3,-0.0015406,82.507,0.56649,supercritical,H2O,C7732185,water,647.0,220.64,17.9,0.0558659217877095,1.8000000000000003,19.297044960116025,0.0005358186
1164.6,4265.0,33436.0,2.9908e-05,54.319,67.075,96.621,44.778,65.438,1447.5,-0.0015917,82.563,0.56709,supercritical,H2O,C7732185,water,647.0,220.64,17.9,0.0558659217877095,1.8000000000000003,19.33013052936911,0.0005353532
1164.6,4272.4,33464.0,2.9883e-05,54.308,67.075,96.603,44.783,65.431,1448.6,-0.0016426,82.62,0.56768,supercritical,H2O,C7732185,water,647.0,220.64,17.9,0.0558659217877095,1.8000000000000003,19.36366932559826,0.0005349056999999999
1164.6,4279.7,33493.0,2.9857e-05,54.298,67.076,96.585,44.789,65.425,1449.8,-0.0016933,82.677,0.56827,supercritical,H2O,C7732185,water,647.0,220.64,17.9,0.0558659217877095,1.8000000000000003,19.39675489485134,0.0005344403
1164.6,4287.1,33521.0,2.9832e-05,54.288,67.077,96.567,44.795,65.419,1450.9,-0.0017438,82.733,0.56886,supercritical,H2O,C7732185,water,647.0,220.64,17.9,0.0558659217877095,1.8000000000000003,19.430293691080497,0.0005339928
1164.6,4294.4,33549.0,2.9807e-05,54.277,67.078,96.549,44.8,65.413,1452.0,-0.0017942,82.79,0.56946,supercritical,H2O,C7732185,water,647.0,220.64,17.9,0.0558659217877095,1.8000000000000003,19.463379260333575,0.0005335453
1164.6,4301.8,33577.0,2.9782e-05,54.267,67.079,96.531,44.806,65.407,1453.2,-0.0018443,82.846,0.57005,supercritical,H2O,C7732185,water,647.0,220.64,17.9,0.0558659217877095,1.8000000000000003,19.496918056562727,0.0005330978
1164.6,4309.1,33606.0,2.9757e-05,54.257,67.08,96.513,44.811,65.401,1454.3,-0.0018943,82.902,0.57064,supercritical,H2O,C7732185,water,647.0,220.64,17.9,0.0558659217877095,1.8000000000000003,19.530003625815812,0.0005326503
1164.6,4316.5,33634.0,2.9732e-05,54.247,67.08,96.495,44.817,65.395,1455.5,-0.0019442,82.958,0.57123,supercritical,H2O,C7732185,water,647.0,220.64,17.9,0.0558659217877095,1.8000000000000003,19.56354242204496,0.0005322027999999999
1164.6,4323.8,33662.0,2.9707e-05,54.237,67.081,96.477,44.822,65.389,1456.6,-0.0019938,83.014,0.57182,supercritical,H2O,C7732185,water,647.0,220.64,17.9,0.0558659217877095,1.8000000000000003,19.596627991298043,0.0005317553
1164.6,4331.2,33690.0,2.9683e-05,54.226,67.082,96.459,44.828,65.382,1457.7,-0.0020433,83.07,0.57242,supercritical,H2O,C7732185,water,647.0,220.64,17.9,0.0558659217877095,1.8000000000000003,19.630166787527195,0.0005313256999999999
1164.6,4338.5,33718.0,2.9658e-05,54.216,67.083,96.441,44.834,65.376,1458.9,-0.0020926,83.126,0.57301,supercritical,H2O,C7732185,water,647.0,220.64,17.9,0.0558659217877095,1.8000000000000003,19.663252356780276,0.0005308782
1164.6,4345.9,33746.0,2.9633e-05,54.206,67.084,96.423,44.839,65.37,1460.0,-0.0021417,83.182,0.5736,supercritical,H2O,C7732185,water,647.0,220.64,17.9,0.0558659217877095,1.8000000000000003,19.69679115300943,0.0005304306999999999
1164.6,4353.2,33774.0,2.9609e-05,54.196,67.085,96.405,44.845,65.364,1461.1,-0.0021907,83.238,0.57419,supercritical,H2O,C7732185,water,647.0,220.64,17.9,0.0558659217877095,1.8000000000000003,19.72987672226251,0.0005300011
1164.6,4360.6,33801.0,2.9585e-05,54.186,67.087,96.388,44.85,65.358,1462.3,-0.0022394,83.294,0.57478,supercritical,H2O,C7732185,water,647.0,220.64,17.9,0.0558659217877095,1.8000000000000003,19.763415518491662,0.0005295714999999999
1164.6,4367.9,33829.0,2.956e-05,54.176,67.088,96.37,44.856,65.352,1463.4,-0.002288,83.349,0.57537,supercritical,H2O,C7732185,water,647.0,220.64,17.9,0.0558659217877095,1.8000000000000003,19.79650108774474,0.000529124
1164.6,4375.3,33857.0,2.9536e-05,54.166,67.089,96.352,44.861,65.345,1464.5,-0.0023365,83.405,0.57596,supercritical,H2O,C7732185,water,647.0,220.64,17.9,0.0558659217877095,1.8000000000000003,19.830039883973896,0.0005286943999999999
1164.6,4382.6,33885.0,2.9512e-05,54.156,67.09,96.335,44.867,65.339,1465.7,-0.0023848,83.46,0.57655,supercritical,H2O,C7732185,water,647.0,220.64,17.9,0.0558659217877095,1.8000000000000003,19.863125453226978,0.0005282648
1164.6,4390.0,33912.0,2.9488e-05,54.146,67.091,96.317,44.872,65.333,1466.8,-0.0024329,83.516,0.57714,supercritical,H2O,C7732185,water,647.0,220.64,17.9,0.0558659217877095,1.8000000000000003,19.89666424945613,0.0005278352
1164.6,4397.3,33940.0,2.9464e-05,54.136,67.092,96.299,44.878,65.327,1467.9,-0.0024808,83.571,0.57773,supercritical,H2O,C7732185,water,647.0,220.64,17.9,0.0558659217877095,1.8000000000000003,19.92974981870921,0.0005274056
1164.6,4404.7,33967.0,2.944e-05,54.126,67.093,96.282,44.883,65.32,1469.1,-0.0025286,83.626,0.57832,supercritical,H2O,C7732185,water,647.0,220.64,17.9,0.0558659217877095,1.8000000000000003,19.96328861493836,0.000526976
1164.6,4412.0,33995.0,2.9416e-05,54.116,67.095,96.264,44.889,65.314,1470.2,-0.0025762,83.681,0.5789,supercritical,H2O,C7732185,water,647.0,220.64,17.9,0.0558659217877095,1.8000000000000003,19.996374184191446,0.0005265463999999999