Temperature (K),Pressure (bar),Density (mol/m3),Volume (m3/mol),Internal Energy (kJ/mol),Enthalpy (kJ/mol),Entropy (J/mol*K),Cv (J/mol*K),Cp (J/mol*K),Sound Spd. (m/s),Joule-Thomson (K/bar),Viscosity (uPa*s),Therm. Cond. (W/m*K),Phase,substance,substance_id,substance_name,Tc,Pc,rhoc,Vmc,Tr,Pr,Vmr
334.6,672.13,22384.0,4.4674e-05,10.52,13.523,49.941,40.296,73.358,811.29,-0.010121,116.64,0.12659,supercritical,CO2,C124389,carbon-dioxide,304.18,73.8,10.6,0.09433962264150944,1.1,9.107452574525746,0.0004735444
334.6,674.58,22400.0,4.4643e-05,10.513,13.524,49.914,40.3,73.318,812.61,-0.010252,116.86,0.12677,supercritical,CO2,C124389,carbon-dioxide,304.18,73.8,10.6,0.09433962264150944,1.1,9.140650406504067,0.0004732158
334.6,677.04,22415.0,4.4613e-05,10.506,13.526,49.886,40.305,73.279,813.93,-0.010382,117.08,0.12694,supercritical,CO2,C124389,carbon-dioxide,304.18,73.8,10.6,0.09433962264150944,1.1,9.173983739837398,0.00047289779999999996
334.6,679.5,22430.0,4.4582e-05,10.499,13.528,49.859,40.31,73.24,815.24,-0.010511,117.3,0.12712,supercritical,CO2,C124389,carbon-dioxide,304.18,73.8,10.6,0.09433962264150944,1.1,9.207317073170731,0.00047256919999999995
334.6,681.96,22446.0,4.4552e-05,10.492,13.53,49.832,40.314,73.202,816.55,-0.010639,117.52,0.12729,supercritical,CO2,C124389,carbon-dioxide,304.18,73.8,10.6,0.09433962264150944,1.1,9.240650406504066,0.0004722512
334.6,684.42,22461.0,4.4522e-05,10.485,13.532,49.805,40.319,73.164,817.86,-0.010766,117.74,0.12747,supercritical,CO2,C124389,carbon-dioxide,304.18,73.8,10.6,0.09433962264150944,1.1,9.273983739837398,0.00047193319999999997
334.6,686.88,22476.0,4.4492e-05,10.478,13.534,49.778,40.323,73.126,819.16,-0.010892,117.95,0.12764,supercritical,CO2,C124389,carbon-dioxide,304.18,73.8,10.6,0.09433962264150944,1.1,9.307317073170733,0.00047161519999999995
334.6,689.33,22491.0,4.4462e-05,10.471,13.536,49.752,40.328,73.088,820.46,-0.011018,118.17,0.12782,supercritical,CO2,C124389,carbon-dioxide,304.18,73.8,10.6,0.09433962264150944,1.1,9.340514905149053,0.0004712972
334.6,691.79,22506.0,4.4432e-05,10.464,13.538,49.725,40.332,73.051,821.75,-0.011142,118.39,0.12799,supercritical,CO2,C124389,carbon-dioxide,304.18,73.8,10.6,0.09433962264150944,1.1,9.373848238482385,0.00047097919999999996
334.6,694.25,22521.0,4.4403e-05,10.457,13.54,49.698,40.337,73.014,823.05,-0.011265,118.61,0.12816,supercritical,CO2,C124389,carbon-dioxide,304.18,73.8,10.6,0.09433962264150944,1.1,9.407181571815718,0.0004706718
334.6,696.71,22536.0,4.4374e-05,10.45,13.542,49.672,40.342,72.977,824.33,-0.011387,118.82,0.12834,supercritical,CO2,C124389,carbon-dioxide,304.18,73.8,10.6,0.09433962264150944,1.1,9.440514905149053,0.00047036439999999994
334.6,699.17,22551.0,4.4344e-05,10.444,13.544,49.645,40.346,72.941,825.62,-0.011509,119.04,0.12851,supercritical,CO2,C124389,carbon-dioxide,304.18,73.8,10.6,0.09433962264150944,1.1,9.473848238482384,0.0004700464
334.6,701.63,22566.0,4.4315e-05,10.437,13.546,49.619,40.351,72.904,826.9,-0.011629,119.26,0.12868,supercritical,CO2,C124389,carbon-dioxide,304.18,73.8,10.6,0.09433962264150944,1.1,9.50718157181572,0.00046973899999999994
334.6,704.08,22580.0,4.4286e-05,10.43,13.548,49.593,40.356,72.868,828.18,-0.011748,119.47,0.12885,supercritical,CO2,C124389,carbon-dioxide,304.18,73.8,10.6,0.09433962264150944,1.1,9.54037940379404,0.0004694316
334.6,706.54,22595.0,4.4258e-05,10.423,13.55,49.566,40.36,72.833,829.45,-0.011867,119.69,0.12903,supercritical,CO2,C124389,carbon-dioxide,304.18,73.8,10.6,0.09433962264150944,1.1,9.573712737127371,0.0004691348
334.6,709.0,22610.0,4.4229e-05,10.417,13.552,49.54,40.365,72.797,830.72,-0.011985,119.9,0.1292,supercritical,CO2,C124389,carbon-dioxide,304.18,73.8,10.6,0.09433962264150944,1.1,9.607046070460704,0.0004688274
334.6,711.46,22624.0,4.4201e-05,10.41,13.555,49.514,40.37,72.762,831.99,-0.012102,120.12,0.12937,supercritical,CO2,C124389,carbon-dioxide,304.18,73.8,10.6,0.09433962264150944,1.1,9.64037940379404,0.0004685306
334.6,713.92,22639.0,4.4172e-05,10.403,13.557,49.488,40.374,72.727,833.26,-0.012218,120.33,0.12954,supercritical,CO2,C124389,carbon-dioxide,304.18,73.8,10.6,0.09433962264150944,1.1,9.67371273712737,0.0004682232
334.6,716.38,22653.0,4.4144e-05,10.397,13.559,49.462,40.379,72.692,834.52,-0.012333,120.55,0.12971,supercritical,CO2,C124389,carbon-dioxide,304.18,73.8,10.6,0.09433962264150944,1.1,9.707046070460706,0.0004679264
334.6,718.83,22668.0,4.4116e-05,10.39,13.561,49.437,40.384,72.658,835.78,-0.012447,120.76,0.12988,supercritical,CO2,C124389,carbon-dioxide,304.18,73.8,10.6,0.09433962264150944,1.1,9.740243902439026,0.0004676296
334.6,721.29,22682.0,4.4088e-05,10.383,13.563,49.411,40.388,72.624,837.03,-0.012561,120.98,0.13005,supercritical,CO2,C124389,carbon-dioxide,304.18,73.8,10.6,0.09433962264150944,1.1,9.773577235772358,0.0004673328
334.6,723.75,22696.0,4.406e-05,10.377,13.566,49.385,40.393,72.59,838.28,-0.012673,121.19,0.13022,supercritical,CO2,C124389,carbon-dioxide,304.18,73.8,10.6,0.09433962264150944,1.1,9.80691056910569,0.000467036
334.6,726.21,22710.0,4.4033e-05,10.37,13.568,49.36,40.398,72.556,839.53,-0.012785,121.4,0.13039,supercritical,CO2,C124389,carbon-dioxide,304.18,73.8,10.6,0.09433962264150944,1.1,9.840243902439026,0.0004667497999999999
334.6,728.67,22725.0,4.4005e-05,10.364,13.57,49.334,40.402,72.523,840.78,-0.012896,121.62,0.13056,supercritical,CO2,C124389,carbon-dioxide,304.18,73.8,10.6,0.09433962264150944,1.1,9.873577235772357,0.000466453
334.6,731.13,22739.0,4.3978e-05,10.357,13.572,49.309,40.407,72.49,842.02,-0.013006,121.83,0.13073,supercritical,CO2,C124389,carbon-dioxide,304.18,73.8,10.6,0.09433962264150944,1.1,9.906910569105692,0.00046616679999999996
334.6,733.58,22753.0,4.395e-05,10.351,13.575,49.283,40.412,72.457,843.26,-0.013116,122.04,0.1309,supercritical,CO2,C124389,carbon-dioxide,304.18,73.8,10.6,0.09433962264150944,1.1,9.940108401084013,0.00046586999999999996
334.6,736.04,22767.0,4.3923e-05,10.344,13.577,49.258,40.416,72.424,844.49,-0.013224,122.26,0.13107,supercritical,CO2,C124389,carbon-dioxide,304.18,73.8,10.6,0.09433962264150944,1.1,9.973441734417344,0.00046558379999999994
334.6,738.5,22781.0,4.3896e-05,10.338,13.579,49.233,40.421,72.391,845.73,-0.013332,122.47,0.13123,supercritical,CO2,C124389,carbon-dioxide,304.18,73.8,10.6,0.09433962264150944,1.1,10.006775067750677,0.0004652976
334.6,740.96,22795.0,4.3869e-05,10.331,13.582,49.208,40.426,72.359,846.95,-0.013439,122.68,0.1314,supercritical,CO2,C124389,carbon-dioxide,304.18,73.8,10.6,0.09433962264150944,1.1,10.040108401084012,0.0004650114
334.6,743.42,22809.0,4.3843e-05,10.325,13.584,49.183,40.431,72.327,848.18,-0.013545,122.89,0.13157,supercritical,CO2,C124389,carbon-dioxide,304.18,73.8,10.6,0.09433962264150944,1.1,10.073441734417344,0.0004647358
334.6,745.88,22823.0,4.3816e-05,10.319,13.587,49.158,40.435,72.295,849.4,-0.013651,123.1,0.13174,supercritical,CO2,C124389,carbon-dioxide,304.18,73.8,10.6,0.09433962264150944,1.1,10.106775067750679,0.0004644496
334.6,748.33,22837.0,4.3789e-05,10.312,13.589,49.133,40.44,72.263,850.62,-0.013756,123.32,0.1319,supercritical,CO2,C124389,carbon-dioxide,304.18,73.8,10.6,0.09433962264150944,1.1,10.139972899728999,0.00046416339999999994
334.6,750.79,22850.0,4.3763e-05,10.306,13.592,49.108,40.445,72.232,851.84,-0.01386,123.53,0.13207,supercritical,CO2,C124389,carbon-dioxide,304.18,73.8,10.6,0.09433962264150944,1.1,10.17330623306233,0.00046388779999999996
334.6,753.25,22864.0,4.3737e-05,10.3,13.594,49.083,40.45,72.201,853.06,-0.013963,123.74,0.13224,supercritical,CO2,C124389,carbon-dioxide,304.18,73.8,10.6,0.09433962264150944,1.1,10.206639566395664,0.0004636121999999999
334.6,755.71,22878.0,4.3711e-05,10.293,13.597,49.058,40.454,72.17,854.27,-0.014066,123.95,0.1324,supercritical,CO2,C124389,carbon-dioxide,304.18,73.8,10.6,0.09433962264150944,1.1,10.239972899728999,0.0004633366
334.6,758.17,22891.0,4.3685e-05,10.287,13.599,49.034,40.459,72.139,855.48,-0.014168,124.16,0.13257,supercritical,CO2,C124389,carbon-dioxide,304.18,73.8,10.6,0.09433962264150944,1.1,10.27330623306233,0.00046306099999999996
334.6,760.63,22905.0,4.3659e-05,10.281,13.602,49.009,40.464,72.109,856.68,-0.014269,124.37,0.13273,supercritical,CO2,C124389,carbon-dioxide,304.18,73.8,10.6,0.09433962264150944,1.1,10.306639566395665,0.0004627854
334.6,763.08,22919.0,4.3633e-05,10.275,13.604,48.985,40.469,72.078,857.88,-0.014369,124.58,0.1329,supercritical,CO2,C124389,carbon-dioxide,304.18,73.8,10.6,0.09433962264150944,1.1,10.339837398373986,0.00046250979999999995
334.6,765.54,22932.0,4.3607e-05,10.268,13.607,48.96,40.473,72.048,859.08,-0.014469,124.79,0.13306,supercritical,CO2,C124389,carbon-dioxide,304.18,73.8,10.6,0.09433962264150944,1.1,10.373170731707317,0.00046223419999999997
334.6,768.0,22945.0,4.3582e-05,10.262,13.609,48.936,40.478,72.018,860.28,-0.014568,125.0,0.13323,supercritical,CO2,C124389,carbon-dioxide,304.18,73.8,10.6,0.09433962264150944,1.1,10.40650406504065,0.0004619691999999999
334.6,770.46,22959.0,4.3556e-05,10.256,13.612,48.912,40.483,71.988,861.47,-0.014667,125.21,0.13339,supercritical,CO2,C124389,carbon-dioxide,304.18,73.8,10.6,0.09433962264150944,1.1,10.439837398373985,0.0004616936
334.6,772.92,22972.0,4.3531e-05,10.25,13.614,48.888,40.488,71.959,862.66,-0.014765,125.42,0.13356,supercritical,CO2,C124389,carbon-dioxide,304.18,73.8,10.6,0.09433962264150944,1.1,10.473170731707317,0.0004614286
334.6,775.38,22986.0,4.3506e-05,10.244,13.617,48.863,40.493,71.93,863.85,-0.014862,125.63,0.13372,supercritical,CO2,C124389,carbon-dioxide,304.18,73.8,10.6,0.09433962264150944,1.1,10.506504065040652,0.0004611636
334.6,777.83,22999.0,4.348e-05,10.238,13.62,48.839,40.497,71.9,865.04,-0.014958,125.83,0.13388,supercritical,CO2,C124389,carbon-dioxide,304.18,73.8,10.6,0.09433962264150944,1.1,10.539701897018972,0.00046088799999999996
334.6,780.29,23012.0,4.3455e-05,10.232,13.622,48.815,40.502,71.871,866.22,-0.015054,126.04,0.13405,supercritical,CO2,C124389,carbon-dioxide,304.18,73.8,10.6,0.09433962264150944,1.1,10.573035230352303,0.000460623
334.6,782.75,23025.0,4.3431e-05,10.225,13.625,48.791,40.507,71.843,867.4,-0.015149,126.25,0.13421,supercritical,CO2,C124389,carbon-dioxide,304.18,73.8,10.6,0.09433962264150944,1.1,10.606368563685637,0.00046036859999999994
334.6,785.21,23038.0,4.3406e-05,10.219,13.628,48.768,40.512,71.814,868.58,-0.015244,126.46,0.13437,supercritical,CO2,C124389,carbon-dioxide,304.18,73.8,10.6,0.09433962264150944,1.1,10.639701897018972,0.00046010359999999994
334.6,787.67,23052.0,4.3381e-05,10.213,13.63,48.744,40.517,71.786,869.75,-0.015338,126.67,0.13453,supercritical,CO2,C124389,carbon-dioxide,304.18,73.8,10.6,0.09433962264150944,1.1,10.673035230352303,0.00045983859999999994
334.6,790.12,23065.0,4.3357e-05,10.207,13.633,48.72,40.521,71.758,870.92,-0.015431,126.87,0.1347,supercritical,CO2,C124389,carbon-dioxide,304.18,73.8,10.6,0.09433962264150944,1.1,10.706233062330623,0.00045958419999999993
334.6,792.58,23078.0,4.3332e-05,10.201,13.636,48.696,40.526,71.73,872.09,-0.015524,127.08,0.13486,supercritical,CO2,C124389,carbon-dioxide,304.18,73.8,10.6,0.09433962264150944,1.1,10.739566395663958,0.00045931919999999993
334.6,795.04,23091.0,4.3308e-05,10.195,13.639,48.673,40.531,71.702,873.26,-0.015616,127.29,0.13502,supercritical,CO2,C124389,carbon-dioxide,304.18,73.8,10.6,0.09433962264150944,1.1,10.77289972899729,0.00045906479999999997
334.6,797.5,23104.0,4.3283e-05,10.189,13.641,48.649,40.536,71.674,874.42,-0.015707,127.5,0.13518,supercritical,CO2,C124389,carbon-dioxide,304.18,73.8,10.6,0.09433962264150944,1.1,10.806233062330623,0.00045879979999999997
334.6,799.96,23116.0,4.3259e-05,10.184,13.644,48.626,40.541,71.647,875.58,-0.015798,127.7,0.13534,supercritical,CO2,C124389,carbon-dioxide,304.18,73.8,10.6,0.09433962264150944,1.1,10.839566395663958,0.00045854539999999996
334.6,802.42,23129.0,4.3235e-05,10.178,13.647,48.602,40.546,71.619,876.74,-0.015888,127.91,0.1355,supercritical,CO2,C124389,carbon-dioxide,304.18,73.8,10.6,0.09433962264150944,1.1,10.87289972899729,0.000458291
334.6,804.87,23142.0,4.3211e-05,10.172,13.65,48.579,40.55,71.592,877.89,-0.015978,128.12,0.13566,supercritical,CO2,C124389,carbon-dioxide,304.18,73.8,10.6,0.09433962264150944,1.1,10.90609756097561,0.0004580365999999999
334.6,807.33,23155.0,4.3187e-05,10.166,13.653,48.555,40.555,71.565,879.04,-0.016067,128.32,0.13583,supercritical,CO2,C124389,carbon-dioxide,304.18,73.8,10.6,0.09433962264150944,1.1,10.939430894308945,0.00045778219999999996
334.6,809.79,23168.0,4.3164e-05,10.16,13.655,48.532,40.56,71.538,880.19,-0.016155,128.53,0.13599,supercritical,CO2,C124389,carbon-dioxide,304.18,73.8,10.6,0.09433962264150944,1.1,10.972764227642276,0.0004575384
334.6,812.25,23180.0,4.314e-05,10.154,13.658,48.509,40.565,71.512,881.34,-0.016243,128.73,0.13615,supercritical,CO2,C124389,carbon-dioxide,304.18,73.8,10.6,0.09433962264150944,1.1,11.00609756097561,0.0004572839999999999
334.6,814.71,23193.0,4.3117e-05,10.148,13.661,48.486,40.57,71.485,882.49,-0.016331,128.94,0.13631,supercritical,CO2,C124389,carbon-dioxide,304.18,73.8,10.6,0.09433962264150944,1.1,11.039430894308945,0.0004570402
334.6,817.17,23206.0,4.3093e-05,10.143,13.664,48.463,40.575,71.459,883.63,-0.016417,129.15,0.13646,supercritical,CO2,C124389,carbon-dioxide,304.18,73.8,10.6,0.09433962264150944,1.1,11.072764227642276,0.00045678579999999997
334.6,819.62,23218.0,4.307e-05,10.137,13.667,48.44,40.58,71.433,884.77,-0.016504,129.35,0.13662,supercritical,CO2,C124389,carbon-dioxide,304.18,73.8,10.6,0.09433962264150944,1.1,11.105962059620596,0.00045654199999999994
334.6,822.08,23231.0,4.3047e-05,10.131,13.67,48.417,40.585,71.407,885.9,-0.016589,129.56,0.13678,supercritical,CO2,C124389,carbon-dioxide,304.18,73.8,10.6,0.09433962264150944,1.1,11.139295392953931,0.0004562982
334.6,824.54,23243.0,4.3023e-05,10.125,13.673,48.394,40.589,71.381,887.04,-0.016675,129.76,0.13694,supercritical,CO2,C124389,carbon-dioxide,304.18,73.8,10.6,0.09433962264150944,1.1,11.172628726287263,0.00045604379999999994
334.6,827.0,23256.0,4.3e-05,10.119,13.676,48.371,40.594,71.356,888.17,-0.016759,129.97,0.1371,supercritical,CO2,C124389,carbon-dioxide,304.18,73.8,10.6,0.09433962264150944,1.1,11.205962059620596,0.00045579999999999997
334.6,829.46,23268.0,4.2977e-05,10.114,13.679,48.348,40.599,71.33,889.3,-0.016843,130.17,0.13726,supercritical,CO2,C124389,carbon-dioxide,304.18,73.8,10.6,0.09433962264150944,1.1,11.239295392953931,0.00045555619999999993
334.6,831.92,23280.0,4.2954e-05,10.108,13.681,48.326,40.604,71.305,890.43,-0.016927,130.37,0.13742,supercritical,CO2,C124389,carbon-dioxide,304.18,73.8,10.6,0.09433962264150944,1.1,11.272628726287262,0.0004553124
334.6,834.37,23293.0,4.2932e-05,10.102,13.684,48.303,40.609,71.28,891.55,-0.01701,130.58,0.13757,supercritical,CO2,C124389,carbon-dioxide,304.18,73.8,10.6,0.09433962264150944,1.1,11.305826558265583,0.00045507919999999996
334.6,836.83,23305.0,4.2909e-05,10.097,13.687,48.28,40.614,71.255,892.67,-0.017092,130.78,0.13773,supercritical,CO2,C124389,carbon-dioxide,304.18,73.8,10.6,0.09433962264150944,1.1,11.339159891598918,0.0004548354
334.6,839.29,23317.0,4.2886e-05,10.091,13.69,48.258,40.619,71.23,893.79,-0.017174,130.99,0.13789,supercritical,CO2,C124389,carbon-dioxide,304.18,73.8,10.6,0.09433962264150944,1.1,11.37249322493225,0.0004545916
334.6,841.75,23330.0,4.2864e-05,10.085,13.693,48.235,40.624,71.205,894.91,-0.017256,131.19,0.13805,supercritical,CO2,C124389,carbon-dioxide,304.18,73.8,10.6,0.09433962264150944,1.1,11.405826558265582,0.0004543584
334.6,844.21,23342.0,4.2841e-05,10.08,13.696,48.213,40.629,71.181,896.02,-0.017337,131.39,0.1382,supercritical,CO2,C124389,carbon-dioxide,304.18,73.8,10.6,0.09433962264150944,1.1,11.439159891598917,0.00045411459999999997
334.6,846.67,23354.0,4.2819e-05,10.074,13.7,48.191,40.634,71.156,897.13,-0.017417,131.6,0.13836,supercritical,CO2,C124389,carbon-dioxide,304.18,73.8,10.6,0.09433962264150944,1.1,11.472493224932249,0.0004538813999999999
334.6,849.12,23366.0,4.2797e-05,10.069,13.703,48.168,40.639,71.132,898.24,-0.017497,131.8,0.13852,supercritical,CO2,C124389,carbon-dioxide,304.18,73.8,10.6,0.09433962264150944,1.1,11.50569105691057,0.0004536481999999999
334.6,851.58,23378.0,4.2775e-05,10.063,13.706,48.146,40.644,71.108,899.35,-0.017576,132.0,0.13867,supercritical,CO2,C124389,carbon-dioxide,304.18,73.8,10.6,0.09433962264150944,1.1,11.539024390243904,0.000453415
334.6,854.04,23390.0,4.2753e-05,10.057,13.709,48.124,40.648,71.084,900.45,-0.017655,132.21,0.13883,supercritical,CO2,C124389,carbon-dioxide,304.18,73.8,10.6,0.09433962264150944,1.1,11.572357723577236,0.0004531818
334.6,856.5,23402.0,4.2731e-05,10.052,13.712,48.102,40.653,71.06,901.56,-0.017734,132.41,0.13899,supercritical,CO2,C124389,carbon-dioxide,304.18,73.8,10.6,0.09433962264150944,1.1,11.605691056910569,0.0004529486
334.6,858.96,23414.0,4.2709e-05,10.046,13.715,48.079,40.658,71.037,902.66,-0.017812,132.61,0.13914,supercritical,CO2,C124389,carbon-dioxide,304.18,73.8,10.6,0.09433962264150944,1.1,11.639024390243904,0.0004527154
334.6,861.42,23426.0,4.2687e-05,10.041,13.718,48.057,40.663,71.013,903.75,-0.017889,132.81,0.1393,supercritical,CO2,C124389,carbon-dioxide,304.18,73.8,10.6,0.09433962264150944,1.1,11.672357723577235,0.00045248219999999994
334.6,863.87,23438.0,4.2665e-05,10.035,13.721,48.035,40.668,70.99,904.85,-0.017967,133.02,0.13945,supercritical,CO2,C124389,carbon-dioxide,304.18,73.8,10.6,0.09433962264150944,1.1,11.705555555555556,0.00045224899999999995
334.6,866.33,23450.0,4.2644e-05,10.03,13.724,48.013,40.673,70.966,905.94,-0.018043,133.22,0.13961,supercritical,CO2,C124389,carbon-dioxide,304.18,73.8,10.6,0.09433962264150944,1.1,11.73888888888889,0.0004520264
334.6,868.79,23462.0,4.2622e-05,10.024,13.727,47.992,40.678,70.943,907.03,-0.018119,133.42,0.13976,supercritical,CO2,C124389,carbon-dioxide,304.18,73.8,10.6,0.09433962264150944,1.1,11.772222222222222,0.00045179319999999994
334.6,871.25,23474.0,4.2601e-05,10.019,13.731,47.97,40.683,70.92,908.12,-0.018195,133.62,0.13992,supercritical,CO2,C124389,carbon-dioxide,304.18,73.8,10.6,0.09433962264150944,1.1,11.805555555555555,0.0004515706
334.6,873.71,23486.0,4.2579e-05,10.014,13.734,47.948,40.688,70.898,909.21,-0.01827,133.82,0.14007,supercritical,CO2,C124389,carbon-dioxide,304.18,73.8,10.6,0.09433962264150944,1.1,11.83888888888889,0.0004513374
334.6,876.17,23497.0,4.2558e-05,10.008,13.737,47.926,40.693,70.875,910.29,-0.018345,134.02,0.14023,supercritical,CO2,C124389,carbon-dioxide,304.18,73.8,10.6,0.09433962264150944,1.1,11.872222222222222,0.00045111479999999997
334.6,878.62,23509.0,4.2537e-05,10.003,13.74,47.904,40.698,70.852,911.37,-0.018419,134.22,0.14038,supercritical,CO2,C124389,carbon-dioxide,304.18,73.8,10.6,0.09433962264150944,1.1,11.905420054200542,0.0004508922
334.6,881.08,23521.0,4.2516e-05,9.9974,13.743,47.883,40.703,70.83,912.45,-0.018493,134.43,0.14053,supercritical,CO2,C124389,carbon-dioxide,304.18,73.8,10.6,0.09433962264150944,1.1,11.938753387533877,0.00045066959999999994
334.6,883.54,23532.0,4.2494e-05,9.9921,13.747,47.861,40.708,70.808,913.53,-0.018567,134.63,0.14069,supercritical,CO2,C124389,carbon-dioxide,304.18,73.8,10.6,0.09433962264150944,1.1,11.972086720867209,0.00045043639999999994
334.6,886.0,23544.0,4.2474e-05,9.9867,13.75,47.84,40.713,70.785,914.6,-0.01864,134.83,0.14084,supercritical,CO2,C124389,carbon-dioxide,304.18,73.8,10.6,0.09433962264150944,1.1,12.005420054200542,0.00045022439999999996
334.6,888.46,23556.0,4.2453e-05,9.9814,13.753,47.818,40.718,70.763,915.68,-0.018712,135.03,0.14099,supercritical,CO2,C124389,carbon-dioxide,304.18,73.8,10.6,0.09433962264150944,1.1,12.038753387533877,0.0004500018
334.6,890.92,23567.0,4.2432e-05,9.9761,13.756,47.797,40.723,70.741,916.75,-0.018784,135.23,0.14115,supercritical,CO2,C124389,carbon-dioxide,304.18,73.8,10.6,0.09433962264150944,1.1,12.072086720867208,0.0004497792
334.6,893.37,23579.0,4.2411e-05,9.9708,13.76,47.775,40.728,70.72,917.81,-0.018856,135.43,0.1413,supercritical,CO2,C124389,carbon-dioxide,304.18,73.8,10.6,0.09433962264150944,1.1,12.105284552845529,0.0004495565999999999