Temperature (K),Pressure (bar),Density (mol/m3),Volume (m3/mol),Internal Energy (kJ/mol),Enthalpy (kJ/mol),Entropy (J/mol*K),Cv (J/mol*K),Cp (J/mol*K),Sound Spd. (m/s),Joule-Thomson (K/bar),Viscosity (uPa*s),Therm. Cond. (W/m*K),Phase,substance,substance_id,substance_name,Tc,Pc,rhoc,Vmc,Tr,Pr,Vmr
231.87,132.04,8523.0,0.00011733,3.4471,4.9963,151.55,22.916,47.901,299.72,0.25781,22.833,0.033338,supercritical,O2,C7782447,oxygen,154.58,50.43,13.6,0.07352941176470588,1.5,2.6182827681935357,0.001595688
231.87,133.41,8622.3,0.00011598,3.4323,4.9795,151.41,22.931,48.094,300.34,0.25539,22.951,0.033531,supercritical,O2,C7782447,oxygen,154.58,50.43,13.6,0.07352941176470588,1.5,2.645449137418203,0.001577328
231.87,134.77,8721.4,0.00011466,3.4175,4.9628,151.27,22.945,48.284,300.98,0.25297,23.069,0.033724,supercritical,O2,C7782447,oxygen,154.58,50.43,13.6,0.07352941176470588,1.5,2.672417211976998,0.001559376
231.87,136.13,8820.4,0.00011337,3.4028,4.9462,151.13,22.96,48.472,301.63,0.25055,23.189,0.033919,supercritical,O2,C7782447,oxygen,154.58,50.43,13.6,0.07352941176470588,1.5,2.699385286535792,0.001541832
231.87,137.5,8919.4,0.00011212,3.388,4.9296,150.99,22.974,48.656,302.29,0.24813,23.309,0.034114,supercritical,O2,C7782447,oxygen,154.58,50.43,13.6,0.07352941176470588,1.5,2.72655165576046,0.001524832
231.87,138.87,9018.2,0.00011089,3.3734,4.9132,150.86,22.988,48.838,302.97,0.24572,23.431,0.03431,supercritical,O2,C7782447,oxygen,154.58,50.43,13.6,0.07352941176470588,1.5,2.753718024985128,0.001508104
231.87,140.23,9116.8,0.00010969,3.3587,4.8969,150.72,23.001,49.017,303.66,0.24331,23.554,0.034507,supercritical,O2,C7782447,oxygen,154.58,50.43,13.6,0.07352941176470588,1.5,2.780686099543922,0.001491784
231.87,141.59,9215.3,0.00010851,3.3441,4.8806,150.59,23.015,49.192,304.36,0.2409,23.678,0.034705,supercritical,O2,C7782447,oxygen,154.58,50.43,13.6,0.07352941176470588,1.5,2.8076541741027166,0.001475736
231.87,142.96,9313.7,0.00010737,3.3296,4.8645,150.45,23.028,49.364,305.07,0.23851,23.802,0.034903,supercritical,O2,C7782447,oxygen,154.58,50.43,13.6,0.07352941176470588,1.5,2.8348205433273845,0.001460232
231.87,144.32,9411.9,0.00010625,3.3151,4.8485,150.32,23.041,49.534,305.8,0.23611,23.928,0.035103,supercritical,O2,C7782447,oxygen,154.58,50.43,13.6,0.07352941176470588,1.5,2.861788617886179,0.0014449999999999999
231.87,145.69,9509.8,0.00010515,3.3006,4.8326,150.19,23.054,49.699,306.54,0.23373,24.055,0.035303,supercritical,O2,C7782447,oxygen,154.58,50.43,13.6,0.07352941176470588,1.5,2.888954987110847,0.0014300399999999998
231.87,147.06,9607.6,0.00010408,3.2862,4.8168,150.06,23.066,49.862,307.29,0.23135,24.183,0.035503,supercritical,O2,C7782447,oxygen,154.58,50.43,13.6,0.07352941176470588,1.5,2.916121356335515,0.0014154880000000001
231.87,148.42,9705.1,0.00010304,3.2718,4.8011,149.93,23.078,50.021,308.06,0.22898,24.311,0.035705,supercritical,O2,C7782447,oxygen,154.58,50.43,13.6,0.07352941176470588,1.5,2.9430894308943087,0.001401344
231.87,149.78,9802.4,0.00010202,3.2575,4.7855,149.8,23.09,50.177,308.84,0.22662,24.441,0.035906,supercritical,O2,C7782447,oxygen,154.58,50.43,13.6,0.07352941176470588,1.5,2.9700575054531035,0.001387472
231.87,151.15,9899.5,0.00010102,3.2432,4.7701,149.68,23.102,50.329,309.62,0.22427,24.571,0.036109,supercritical,O2,C7782447,oxygen,154.58,50.43,13.6,0.07352941176470588,1.5,2.9972238746777715,0.001373872
231.87,152.51,9996.3,0.00010004,3.229,4.7547,149.55,23.114,50.477,310.43,0.22193,24.702,0.036311,supercritical,O2,C7782447,oxygen,154.58,50.43,13.6,0.07352941176470588,1.5,3.0241919492365654,0.001360544
231.87,153.88,10093.0,9.908e-05,3.2148,4.7395,149.43,23.125,50.623,311.24,0.2196,24.834,0.036514,supercritical,O2,C7782447,oxygen,154.58,50.43,13.6,0.07352941176470588,1.5,3.0513583184612334,0.0013474879999999998
231.87,155.25,10189.0,9.8144e-05,3.2007,4.7244,149.3,23.136,50.764,312.07,0.21727,24.966,0.036718,supercritical,O2,C7782447,oxygen,154.58,50.43,13.6,0.07352941176470588,1.5,3.0785246876859014,0.0013347584
231.87,156.61,10285.0,9.7228e-05,3.1867,4.7094,149.18,23.147,50.902,312.9,0.21496,25.1,0.036922,supercritical,O2,C7782447,oxygen,154.58,50.43,13.6,0.07352941176470588,1.5,3.1054927622446957,0.0013223007999999998
231.87,157.97,10381.0,9.6332e-05,3.1727,4.6945,149.06,23.158,51.036,313.75,0.21266,25.234,0.037126,supercritical,O2,C7782447,oxygen,154.58,50.43,13.6,0.07352941176470588,1.5,3.13246083680349,0.0013101152
231.87,159.34,10476.0,9.5456e-05,3.1587,4.6797,148.94,23.168,51.167,314.61,0.21038,25.368,0.037331,supercritical,O2,C7782447,oxygen,154.58,50.43,13.6,0.07352941176470588,1.5,3.159627206028158,0.0012982016
231.87,160.71,10571.0,9.4598e-05,3.1449,4.6651,148.82,23.178,51.294,315.48,0.2081,25.504,0.037535,supercritical,O2,C7782447,oxygen,154.58,50.43,13.6,0.07352941176470588,1.5,3.186793575252826,0.0012865328
231.87,162.07,10666.0,9.3758e-05,3.1311,4.6506,148.7,23.188,51.417,316.36,0.20584,25.64,0.03774,supercritical,O2,C7782447,oxygen,154.58,50.43,13.6,0.07352941176470588,1.5,3.21376164981162,0.0012751088000000001
231.87,163.44,10760.0,9.2936e-05,3.1173,4.6362,148.59,23.198,51.537,317.26,0.20359,25.776,0.037946,supercritical,O2,C7782447,oxygen,154.58,50.43,13.6,0.07352941176470588,1.5,3.240928019036288,0.0012639296
231.87,164.8,10854.0,9.2131e-05,3.1036,4.622,148.47,23.207,51.653,318.16,0.20135,25.913,0.038151,supercritical,O2,C7782447,oxygen,154.58,50.43,13.6,0.07352941176470588,1.5,3.2678960935950827,0.0012529816
231.87,166.16,10948.0,9.1344e-05,3.09,4.6078,148.36,23.217,51.765,319.08,0.19913,26.051,0.038356,supercritical,O2,C7782447,oxygen,154.58,50.43,13.6,0.07352941176470588,1.5,3.2948641681538766,0.0012422784
231.87,167.53,11041.0,9.0572e-05,3.0765,4.5938,148.24,23.226,51.874,320.0,0.19692,26.189,0.038561,supercritical,O2,C7782447,oxygen,154.58,50.43,13.6,0.07352941176470588,1.5,3.3220305373785446,0.0012317792
231.87,168.9,11134.0,8.9817e-05,3.063,4.5799,148.13,23.235,51.979,320.94,0.19473,26.327,0.038767,supercritical,O2,C7782447,oxygen,154.58,50.43,13.6,0.07352941176470588,1.5,3.3491969066032126,0.0012215111999999998
231.87,170.26,11226.0,8.9077e-05,3.0496,4.5662,148.02,23.244,52.08,321.88,0.19255,26.466,0.038972,supercritical,O2,C7782447,oxygen,154.58,50.43,13.6,0.07352941176470588,1.5,3.3761649811620065,0.0012114472
231.87,171.62,11318.0,8.8353e-05,3.0362,4.5526,147.91,23.252,52.178,322.84,0.19038,26.605,0.039177,supercritical,O2,C7782447,oxygen,154.58,50.43,13.6,0.07352941176470588,1.5,3.4031330557208013,0.0012016008
231.87,172.99,11410.0,8.7643e-05,3.0229,4.5391,147.8,23.261,52.272,323.8,0.18823,26.745,0.039382,supercritical,O2,C7782447,oxygen,154.58,50.43,13.6,0.07352941176470588,1.5,3.4302994249454692,0.0011919448
231.87,174.35,11501.0,8.6948e-05,3.0097,4.5257,147.69,23.269,52.363,324.78,0.1861,26.885,0.039587,supercritical,O2,C7782447,oxygen,154.58,50.43,13.6,0.07352941176470588,1.5,3.457267499504263,0.0011824927999999999
231.87,175.72,11592.0,8.6267e-05,2.9966,4.5125,147.58,23.277,52.449,325.76,0.18398,27.025,0.039792,supercritical,O2,C7782447,oxygen,154.58,50.43,13.6,0.07352941176470588,1.5,3.484433868728931,0.0011732312000000001
231.87,177.09,11682.0,8.56e-05,2.9835,4.4994,147.47,23.285,52.533,326.76,0.18188,27.166,0.039997,supercritical,O2,C7782447,oxygen,154.58,50.43,13.6,0.07352941176470588,1.5,3.511600237953599,0.0011641599999999998
231.87,178.45,11772.0,8.4946e-05,2.9705,4.4864,147.37,23.293,52.613,327.76,0.1798,27.307,0.040201,supercritical,O2,C7782447,oxygen,154.58,50.43,13.6,0.07352941176470588,1.5,3.538568312512393,0.0011552656
231.87,179.81,11862.0,8.4305e-05,2.9576,4.4735,147.26,23.3,52.689,328.77,0.17773,27.448,0.040405,supercritical,O2,C7782447,oxygen,154.58,50.43,13.6,0.07352941176470588,1.5,3.565536387071188,0.001146548
231.87,181.18,11951.0,8.3677e-05,2.9447,4.4608,147.16,23.307,52.762,329.79,0.17568,27.589,0.040609,supercritical,O2,C7782447,oxygen,154.58,50.43,13.6,0.07352941176470588,1.5,3.592702756295856,0.0011380072
231.87,182.54,12039.0,8.3062e-05,2.932,4.4482,147.05,23.315,52.832,330.82,0.17364,27.73,0.040813,supercritical,O2,C7782447,oxygen,154.58,50.43,13.6,0.07352941176470588,1.5,3.6196708308546497,0.0011296432
231.87,183.91,12127.0,8.2459e-05,2.9193,4.4358,146.95,23.322,52.898,331.85,0.17163,27.872,0.041016,supercritical,O2,C7782447,oxygen,154.58,50.43,13.6,0.07352941176470588,1.5,3.6468372000793177,0.0011214424
231.87,185.28,12215.0,8.1867e-05,2.9066,4.4234,146.85,23.329,52.962,332.9,0.16963,28.014,0.041218,supercritical,O2,C7782447,oxygen,154.58,50.43,13.6,0.07352941176470588,1.5,3.6740035693039856,0.0011133911999999999
231.87,186.64,12302.0,8.1287e-05,2.8941,4.4112,146.75,23.335,53.021,333.95,0.16764,28.156,0.041421,supercritical,O2,C7782447,oxygen,154.58,50.43,13.6,0.07352941176470588,1.5,3.70097164386278,0.0011055032
231.87,188.0,12389.0,8.0718e-05,2.8816,4.3992,146.65,23.342,53.078,335.01,0.16568,28.298,0.041623,supercritical,O2,C7782447,oxygen,154.58,50.43,13.6,0.07352941176470588,1.5,3.7279397184215743,0.0010977647999999998
231.87,189.37,12475.0,8.0161e-05,2.8692,4.3872,146.55,23.349,53.131,336.07,0.16373,28.44,0.041824,supercritical,O2,C7782447,oxygen,154.58,50.43,13.6,0.07352941176470588,1.5,3.7551060876462423,0.0010901895999999999
231.87,190.74,12561.0,7.9614e-05,2.8569,4.3754,146.45,23.355,53.182,337.15,0.1618,28.582,0.042025,supercritical,O2,C7782447,oxygen,154.58,50.43,13.6,0.07352941176470588,1.5,3.7822724568709103,0.0010827503999999999
231.87,192.1,12646.0,7.9077e-05,2.8447,4.3637,146.35,23.361,53.229,338.23,0.15989,28.724,0.042226,supercritical,O2,C7782447,oxygen,154.58,50.43,13.6,0.07352941176470588,1.5,3.8092405314297046,0.0010754472
231.87,193.47,12731.0,7.8551e-05,2.8325,4.3522,146.26,23.367,53.273,339.32,0.15799,28.866,0.042426,supercritical,O2,C7782447,oxygen,154.58,50.43,13.6,0.07352941176470588,1.5,3.836406900654372,0.0010682935999999999
231.87,194.83,12815.0,7.8035e-05,2.8204,4.3408,146.16,23.373,53.315,340.41,0.15611,29.008,0.042625,supercritical,O2,C7782447,oxygen,154.58,50.43,13.6,0.07352941176470588,1.5,3.863374975213167,0.0010612759999999999
231.87,196.19,12899.0,7.7528e-05,2.8084,4.3295,146.07,23.379,53.353,341.51,0.15425,29.15,0.042824,supercritical,O2,C7782447,oxygen,154.58,50.43,13.6,0.07352941176470588,1.5,3.8903430497719613,0.0010543807999999998
231.87,197.56,12982.0,7.7031e-05,2.7965,4.3183,145.98,23.385,53.389,342.62,0.15241,29.292,0.043023,supercritical,O2,C7782447,oxygen,154.58,50.43,13.6,0.07352941176470588,1.5,3.917509418996629,0.0010476216
231.87,198.93,13064.0,7.6544e-05,2.7846,4.3073,145.88,23.39,53.422,343.73,0.15059,29.434,0.04322,supercritical,O2,C7782447,oxygen,154.58,50.43,13.6,0.07352941176470588,1.5,3.944675788221297,0.0010409984
231.87,200.29,13147.0,7.6065e-05,2.7728,4.2963,145.79,23.396,53.452,344.85,0.14878,29.576,0.043418,supercritical,O2,C7782447,oxygen,154.58,50.43,13.6,0.07352941176470588,1.5,3.971643862780091,0.001034484
231.87,201.66,13228.0,7.5595e-05,2.7611,4.2855,145.7,23.401,53.479,345.97,0.147,29.718,0.043614,supercritical,O2,C7782447,oxygen,154.58,50.43,13.6,0.07352941176470588,1.5,3.998810232004759,0.001028092
231.87,203.02,13310.0,7.5134e-05,2.7495,4.2749,145.61,23.407,53.504,347.1,0.14523,29.859,0.04381,supercritical,O2,C7782447,oxygen,154.58,50.43,13.6,0.07352941176470588,1.5,4.025778306563554,0.0010218224
231.87,204.38,13390.0,7.4681e-05,2.738,4.2643,145.52,23.412,53.527,348.24,0.14347,30.001,0.044005,supercritical,O2,C7782447,oxygen,154.58,50.43,13.6,0.07352941176470588,1.5,4.052746381122348,0.0010156616
231.87,205.75,13470.0,7.4237e-05,2.7265,4.2539,145.43,23.417,53.547,349.38,0.14174,30.142,0.0442,supercritical,O2,C7782447,oxygen,154.58,50.43,13.6,0.07352941176470588,1.5,4.079912750347016,0.0010096232
231.87,207.12,13550.0,7.3801e-05,2.7151,4.2436,145.34,23.422,53.564,350.52,0.14002,30.284,0.044394,supercritical,O2,C7782447,oxygen,154.58,50.43,13.6,0.07352941176470588,1.5,4.107079119571684,0.0010036936
231.87,208.48,13629.0,7.3372e-05,2.7038,4.2334,145.26,23.427,53.579,351.67,0.13833,30.425,0.044587,supercritical,O2,C7782447,oxygen,154.58,50.43,13.6,0.07352941176470588,1.5,4.134047194130478,0.0009978591999999999
231.87,209.84,13708.0,7.2951e-05,2.6925,4.2234,145.17,23.432,53.592,352.83,0.13664,30.565,0.04478,supercritical,O2,C7782447,oxygen,154.58,50.43,13.6,0.07352941176470588,1.5,4.1610152686892725,0.0009921336
231.87,211.21,13786.0,7.2538e-05,2.6814,4.2134,145.08,23.436,53.603,353.99,0.13498,30.706,0.044972,supercritical,O2,C7782447,oxygen,154.58,50.43,13.6,0.07352941176470588,1.5,4.1881816379139405,0.0009865168
231.87,212.57,13864.0,7.2132e-05,2.6703,4.2036,145.0,23.441,53.611,355.15,0.13334,30.846,0.045163,supercritical,O2,C7782447,oxygen,154.58,50.43,13.6,0.07352941176470588,1.5,4.215149712472734,0.0009809952
231.87,213.94,13941.0,7.1733e-05,2.6593,4.1939,144.91,23.446,53.618,356.32,0.13171,30.986,0.045353,supercritical,O2,C7782447,oxygen,154.58,50.43,13.6,0.07352941176470588,1.5,4.242316081697402,0.0009755688
231.87,215.31,14017.0,7.1341e-05,2.6483,4.1843,144.83,23.45,53.622,357.49,0.1301,31.126,0.045543,supercritical,O2,C7782447,oxygen,154.58,50.43,13.6,0.07352941176470588,1.5,4.26948245092207,0.0009702375999999999
231.87,216.67,14093.0,7.0956e-05,2.6375,4.1749,144.75,23.455,53.624,358.66,0.1285,31.266,0.045732,supercritical,O2,C7782447,oxygen,154.58,50.43,13.6,0.07352941176470588,1.5,4.296450525480864,0.0009650016
231.87,218.03,14169.0,7.0577e-05,2.6267,4.1655,144.67,23.459,53.625,359.84,0.12693,31.405,0.04592,supercritical,O2,C7782447,oxygen,154.58,50.43,13.6,0.07352941176470588,1.5,4.323418600039659,0.0009598472
231.87,219.4,14244.0,7.0206e-05,2.616,4.1563,144.58,23.463,53.623,361.02,0.12537,31.545,0.046108,supercritical,O2,C7782447,oxygen,154.58,50.43,13.6,0.07352941176470588,1.5,4.350584969264327,0.0009548015999999999
231.87,220.76,14318.0,6.984e-05,2.6054,4.1472,144.5,23.468,53.62,362.2,0.12383,31.683,0.046295,supercritical,O2,C7782447,oxygen,154.58,50.43,13.6,0.07352941176470588,1.5,4.377553043823121,0.0009498239999999999
231.87,222.13,14392.0,6.9481e-05,2.5948,4.1382,144.42,23.472,53.615,363.39,0.1223,31.822,0.046481,supercritical,O2,C7782447,oxygen,154.58,50.43,13.6,0.07352941176470588,1.5,4.404719413047789,0.0009449415999999999
231.87,223.5,14466.0,6.9128e-05,2.5843,4.1293,144.34,23.476,53.608,364.58,0.1208,31.96,0.046666,supercritical,O2,C7782447,oxygen,154.58,50.43,13.6,0.07352941176470588,1.5,4.431885782272457,0.0009401408000000001
231.87,224.86,14539.0,6.878e-05,2.5739,4.1205,144.27,23.48,53.599,365.77,0.1193,32.098,0.046851,supercritical,O2,C7782447,oxygen,154.58,50.43,13.6,0.07352941176470588,1.5,4.458853856831252,0.000935408
231.87,226.22,14612.0,6.8439e-05,2.5636,4.1118,144.19,23.484,53.589,366.97,0.11783,32.236,0.047035,supercritical,O2,C7782447,oxygen,154.58,50.43,13.6,0.07352941176470588,1.5,4.485821931390046,0.0009307704
231.87,227.59,14684.0,6.8103e-05,2.5533,4.1033,144.11,23.488,53.577,368.16,0.11637,32.373,0.047218,supercritical,O2,C7782447,oxygen,154.58,50.43,13.6,0.07352941176470588,1.5,4.512988300614714,0.0009262007999999999
231.87,228.96,14755.0,6.7773e-05,2.5431,4.0948,144.04,23.492,53.564,369.36,0.11493,32.51,0.0474,supercritical,O2,C7782447,oxygen,154.58,50.43,13.6,0.07352941176470588,1.5,4.5401546698393815,0.0009217128
231.87,230.32,14826.0,6.7448e-05,2.533,4.0864,143.96,23.496,53.549,370.56,0.11351,32.647,0.047582,supercritical,O2,C7782447,oxygen,154.58,50.43,13.6,0.07352941176470588,1.5,4.5671227443981754,0.0009172928
231.87,231.69,14897.0,6.7129e-05,2.5229,4.0782,143.88,23.5,53.533,371.77,0.1121,32.784,0.047763,supercritical,O2,C7782447,oxygen,154.58,50.43,13.6,0.07352941176470588,1.5,4.594289113622843,0.0009129544
231.87,233.05,14967.0,6.6814e-05,2.513,4.0701,143.81,23.504,53.516,372.97,0.1107,32.92,0.047943,supercritical,O2,C7782447,oxygen,154.58,50.43,13.6,0.07352941176470588,1.5,4.621257188181638,0.0009086704
231.87,234.41,15036.0,6.6505e-05,2.503,4.062,143.74,23.507,53.497,374.18,0.10932,33.055,0.048122,supercritical,O2,C7782447,oxygen,154.58,50.43,13.6,0.07352941176470588,1.5,4.648225262740432,0.000904468
231.87,235.78,15106.0,6.6201e-05,2.4932,4.0541,143.66,23.511,53.477,375.39,0.10796,33.191,0.048301,supercritical,O2,C7782447,oxygen,154.58,50.43,13.6,0.07352941176470588,1.5,4.6753916319651,0.0009003336
231.87,237.15,15174.0,6.5902e-05,2.4834,4.0463,143.59,23.515,53.456,376.6,0.10662,33.326,0.048478,supercritical,O2,C7782447,oxygen,154.58,50.43,13.6,0.07352941176470588,1.5,4.702558001189768,0.0008962671999999999
231.87,238.51,15242.0,6.5607e-05,2.4737,4.0385,143.52,23.519,53.434,377.81,0.10529,33.46,0.048656,supercritical,O2,C7782447,oxygen,154.58,50.43,13.6,0.07352941176470588,1.5,4.729526075748562,0.0008922552
231.87,239.88,15310.0,6.5317e-05,2.4641,4.0309,143.45,23.522,53.41,379.02,0.10397,33.595,0.048832,supercritical,O2,C7782447,oxygen,154.58,50.43,13.6,0.07352941176470588,1.5,4.75669244497323,0.0008883112
231.87,241.24,15377.0,6.5032e-05,2.4545,4.0234,143.38,23.526,53.386,380.24,0.10267,33.729,0.049008,supercritical,O2,C7782447,oxygen,154.58,50.43,13.6,0.07352941176470588,1.5,4.783660519532025,0.0008844351999999999
231.87,242.6,15444.0,6.4751e-05,2.4451,4.0159,143.31,23.529,53.36,381.45,0.10138,33.862,0.049183,supercritical,O2,C7782447,oxygen,154.58,50.43,13.6,0.07352941176470588,1.5,4.810628594090819,0.0008806136
231.87,243.97,15510.0,6.4474e-05,2.4356,4.0086,143.24,23.533,53.333,382.67,0.10011,33.996,0.049357,supercritical,O2,C7782447,oxygen,154.58,50.43,13.6,0.07352941176470588,1.5,4.837794963315487,0.0008768464000000001
231.87,245.34,15576.0,6.4202e-05,2.4263,4.0014,143.17,23.536,53.306,383.88,0.098855,34.129,0.04953,supercritical,O2,C7782447,oxygen,154.58,50.43,13.6,0.07352941176470588,1.5,4.864961332540155,0.0008731472000000001
231.87,246.7,15641.0,6.3934e-05,2.417,3.9942,143.1,23.54,53.277,385.1,0.097613,34.261,0.049703,supercritical,O2,C7782447,oxygen,154.58,50.43,13.6,0.07352941176470588,1.5,4.8919294070989485,0.0008695024
231.87,248.06,15706.0,6.367e-05,2.4077,3.9872,143.03,23.543,53.248,386.32,0.096385,34.393,0.049875,supercritical,O2,C7782447,oxygen,154.58,50.43,13.6,0.07352941176470588,1.5,4.918897481657743,0.000865912
231.87,249.43,15770.0,6.341e-05,2.3986,3.9802,142.96,23.547,53.218,387.54,0.095172,34.525,0.050046,supercritical,O2,C7782447,oxygen,154.58,50.43,13.6,0.07352941176470588,1.5,4.946063850882411,0.000862376
231.87,250.79,15834.0,6.3153e-05,2.3895,3.9733,142.9,23.55,53.187,388.75,0.093972,34.657,0.050217,supercritical,O2,C7782447,oxygen,154.58,50.43,13.6,0.07352941176470588,1.5,4.973031925441205,0.0008588808
231.87,252.16,15898.0,6.2901e-05,2.3805,3.9666,142.83,23.554,53.155,389.97,0.092786,34.788,0.050387,supercritical,O2,C7782447,oxygen,154.58,50.43,13.6,0.07352941176470588,1.5,5.000198294665873,0.0008554535999999999
231.87,253.53,15961.0,6.2652e-05,2.3715,3.9599,142.76,23.557,53.122,391.19,0.091614,34.918,0.050556,supercritical,O2,C7782447,oxygen,154.58,50.43,13.6,0.07352941176470588,1.5,5.027364663890541,0.0008520671999999999
231.87,254.89,16024.0,6.2408e-05,2.3626,3.9533,142.7,23.56,53.089,392.41,0.090456,35.049,0.050725,supercritical,O2,C7782447,oxygen,154.58,50.43,13.6,0.07352941176470588,1.5,5.054332738449335,0.0008487488
231.87,256.25,16086.0,6.2166e-05,2.3537,3.9468,142.63,23.564,53.055,393.63,0.08931,35.179,0.050893,supercritical,O2,C7782447,oxygen,154.58,50.43,13.6,0.07352941176470588,1.5,5.08130081300813,0.0008454576
231.87,257.62,16148.0,6.1928e-05,2.3449,3.9403,142.57,23.567,53.021,394.85,0.088178,35.308,0.05106,supercritical,O2,C7782447,oxygen,154.58,50.43,13.6,0.07352941176470588,1.5,5.108467182232798,0.0008422207999999999
231.87,258.99,16209.0,6.1694e-05,2.3362,3.934,142.51,23.57,52.985,396.06,0.087059,35.437,0.051226,supercritical,O2,C7782447,oxygen,154.58,50.43,13.6,0.07352941176470588,1.5,5.135633551457466,0.0008390383999999999
231.87,260.35,16270.0,6.1463e-05,2.3276,3.9277,142.44,23.574,52.95,397.28,0.085953,35.566,0.051392,supercritical,O2,C7782447,oxygen,154.58,50.43,13.6,0.07352941176470588,1.5,5.162601626016261,0.0008358968