Temperature (K),Pressure (bar),Density (mol/m3),Volume (m3/mol),Internal Energy (kJ/mol),Enthalpy (kJ/mol),Entropy (J/mol*K),Cv (J/mol*K),Cp (J/mol*K),Sound Spd. (m/s),Joule-Thomson (K/bar),Viscosity (uPa*s),Therm. Cond. (W/m*K),Phase,substance,substance_id,substance_name,Tc,Pc,rhoc,Vmc,Tr,Pr,Vmr
273.76,1.0,44.225,0.022612,19.101,21.362,117.41,27.84,36.41,258.35,1.364,13.739,0.014789,vapor,CO2,C124389,carbon-dioxide,304.18,73.8,10.6,0.09433962264150944,0.9,0.013550135501355014,0.2396872
273.76,3.4583,155.53,0.0064295,19.014,21.238,106.77,28.242,37.487,255.9,1.3661,13.755,0.014942,vapor,CO2,C124389,carbon-dioxide,304.18,73.8,10.6,0.09433962264150944,0.9,0.046860433604336046,0.0681527
273.76,5.9167,270.8,0.0036928,18.925,21.11,101.98,28.663,38.663,253.36,1.3685,13.775,0.015109,vapor,CO2,C124389,carbon-dioxide,304.18,73.8,10.6,0.09433962264150944,0.9,0.0801720867208672,0.03914368
273.76,8.375,390.43,0.0025613,18.833,20.978,98.746,29.107,39.958,250.76,1.3714,13.799,0.015293,vapor,CO2,C124389,carbon-dioxide,304.18,73.8,10.6,0.09433962264150944,0.9,0.11348238482384825,0.027149779999999995
273.76,10.833,514.88,0.0019422,18.736,20.84,96.246,29.579,41.395,248.06,1.3746,13.827,0.015497,vapor,CO2,C124389,carbon-dioxide,304.18,73.8,10.6,0.09433962264150944,0.9,0.14678861788617886,0.02058732
273.76,13.292,644.72,0.0015511,18.636,20.698,94.168,30.083,43.005,245.26,1.3781,13.86,0.015724,vapor,CO2,C124389,carbon-dioxide,304.18,73.8,10.6,0.09433962264150944,0.9,0.18010840108401086,0.016441659999999997
273.76,15.75,780.61,0.001281,18.531,20.549,92.359,30.627,44.826,242.36,1.3818,13.9,0.015978,vapor,CO2,C124389,carbon-dioxide,304.18,73.8,10.6,0.09433962264150944,0.9,0.21341463414634146,0.0135786
273.76,18.208,923.4,0.001083,18.421,20.393,90.732,31.22,46.912,239.33,1.3858,13.946,0.016265,vapor,CO2,C124389,carbon-dioxide,304.18,73.8,10.6,0.09433962264150944,0.9,0.24672086720867206,0.011479799999999998
273.76,20.667,1074.1,0.00093102,18.305,20.229,89.232,31.87,49.334,236.15,1.3899,14.0,0.016593,vapor,CO2,C124389,carbon-dioxide,304.18,73.8,10.6,0.09433962264150944,0.9,0.2800406504065041,0.009868812
273.76,23.125,1234.0,0.00081038,18.181,20.055,87.818,32.594,52.193,232.8,1.3941,14.063,0.016973,vapor,CO2,C124389,carbon-dioxide,304.18,73.8,10.6,0.09433962264150944,0.9,0.3133468834688347,0.008590028
273.76,25.583,1404.8,0.00071184,18.049,19.87,86.46,33.412,55.638,229.25,1.3984,14.138,0.017421,vapor,CO2,C124389,carbon-dioxide,304.18,73.8,10.6,0.09433962264150944,0.9,0.3466531165311653,0.007545504
273.76,28.042,1588.9,0.00062938,17.907,19.672,85.133,34.352,59.901,225.45,1.4027,14.227,0.017958,vapor,CO2,C124389,carbon-dioxide,304.18,73.8,10.6,0.09433962264150944,0.9,0.37997289972899734,0.006671428
273.76,30.5,1789.4,0.00055885,17.751,19.456,83.812,35.461,65.363,221.34,1.4069,14.333,0.018621,vapor,CO2,C124389,carbon-dioxide,304.18,73.8,10.6,0.09433962264150944,0.9,0.41327913279132794,0.005923809999999999
273.76,32.958,2011.2,0.00049722,17.579,19.217,82.468,36.816,72.708,216.81,1.4106,14.463,0.01947,vapor,CO2,C124389,carbon-dioxide,304.18,73.8,10.6,0.09433962264150944,0.9,0.44658536585365854,0.005270532
273.76,35.417,2262.1,0.00044207,17.382,18.948,81.062,38.567,83.34,211.7,1.4134,14.625,0.020622,vapor,CO2,C124389,carbon-dioxide,304.18,73.8,10.6,0.09433962264150944,0.9,0.47990514905149056,0.004685941999999999
273.76,35.419,2262.4,0.00044201,17.382,18.948,81.06,38.569,83.354,211.69,1.4134,14.625,0.020623,vapor,CO2,C124389,carbon-dioxide,304.18,73.8,10.6,0.09433962264150944,0.9,0.4799322493224932,0.004685305999999999
273.76,35.419,20989.0,4.7643e-05,8.6991,8.8679,44.241,41.638,112.74,530.74,0.044874,99.335,0.10842,liquid,CO2,C124389,carbon-dioxide,304.18,73.8,10.6,0.09433962264150944,0.9,0.4799322493224932,0.0005050158
273.76,37.875,21042.0,4.7523e-05,8.6757,8.8557,44.154,41.537,111.66,536.51,0.04334,99.992,0.10889,liquid,CO2,C124389,carbon-dioxide,304.18,73.8,10.6,0.09433962264150944,0.9,0.5132113821138211,0.0005037437999999999
273.76,40.333,21094.0,4.7407e-05,8.6529,8.8441,44.069,41.449,110.64,542.03,0.041885,100.64,0.10936,liquid,CO2,C124389,carbon-dioxide,304.18,73.8,10.6,0.09433962264150944,0.9,0.5465176151761517,0.0005025142
273.76,42.792,21144.0,4.7295e-05,8.6306,8.8329,43.986,41.371,109.68,547.32,0.040502,101.27,0.10981,liquid,CO2,C124389,carbon-dioxide,304.18,73.8,10.6,0.09433962264150944,0.9,0.5798373983739837,0.000501327
273.76,45.25,21193.0,4.7186e-05,8.6087,8.8222,43.904,41.303,108.78,552.39,0.039185,101.89,0.11026,liquid,CO2,C124389,carbon-dioxide,304.18,73.8,10.6,0.09433962264150944,0.9,0.6131436314363143,0.0005001716
273.76,47.708,21240.0,4.708e-05,8.5874,8.812,43.824,41.243,107.92,557.28,0.037928,102.5,0.1107,liquid,CO2,C124389,carbon-dioxide,304.18,73.8,10.6,0.09433962264150944,0.9,0.6464498644986449,0.000499048
273.76,50.167,21287.0,4.6977e-05,8.5664,8.8021,43.746,41.191,107.11,562.0,0.036726,103.1,0.11113,liquid,CO2,C124389,carbon-dioxide,304.18,73.8,10.6,0.09433962264150944,0.9,0.679769647696477,0.0004979562
273.76,52.625,21332.0,4.6877e-05,8.5459,8.7926,43.669,41.144,106.33,566.57,0.035573,103.7,0.11156,liquid,CO2,C124389,carbon-dioxide,304.18,73.8,10.6,0.09433962264150944,0.9,0.7130758807588076,0.0004968962
273.76,55.083,21377.0,4.678e-05,8.5258,8.7835,43.594,41.102,105.6,570.99,0.034468,104.28,0.11198,liquid,CO2,C124389,carbon-dioxide,304.18,73.8,10.6,0.09433962264150944,0.9,0.7463821138211382,0.000495868
273.76,57.542,21420.0,4.6684e-05,8.5061,8.7747,43.52,41.065,104.89,575.29,0.033405,104.86,0.11239,liquid,CO2,C124389,carbon-dioxide,304.18,73.8,10.6,0.09433962264150944,0.9,0.7797018970189702,0.0004948503999999999
273.76,60.0,21463.0,4.6592e-05,8.4867,8.7663,43.447,41.032,104.22,579.47,0.032382,105.43,0.1128,liquid,CO2,C124389,carbon-dioxide,304.18,73.8,10.6,0.09433962264150944,0.9,0.8130081300813008,0.0004938751999999999
273.76,62.458,21505.0,4.6501e-05,8.4677,8.7581,43.375,41.002,103.58,583.54,0.031396,105.99,0.1132,liquid,CO2,C124389,carbon-dioxide,304.18,73.8,10.6,0.09433962264150944,0.9,0.8463143631436314,0.0004929105999999999
273.76,64.917,21546.0,4.6412e-05,8.449,8.7503,43.305,40.976,102.96,587.51,0.030445,106.54,0.1136,liquid,CO2,C124389,carbon-dioxide,304.18,73.8,10.6,0.09433962264150944,0.9,0.8796341463414634,0.0004919672
273.76,67.375,21586.0,4.6326e-05,8.4306,8.7427,43.236,40.952,102.37,591.39,0.029527,107.09,0.11399,liquid,CO2,C124389,carbon-dioxide,304.18,73.8,10.6,0.09433962264150944,0.9,0.912940379403794,0.0004910556
273.76,69.833,21626.0,4.6241e-05,8.4125,8.7354,43.168,40.931,101.8,595.18,0.028639,107.63,0.11437,liquid,CO2,C124389,carbon-dioxide,304.18,73.8,10.6,0.09433962264150944,0.9,0.9462466124661246,0.0004901546
273.76,72.292,21665.0,4.6158e-05,8.3947,8.7284,43.1,40.912,101.26,598.89,0.02778,108.17,0.11476,liquid,CO2,C124389,carbon-dioxide,304.18,73.8,10.6,0.09433962264150944,0.9,0.9795663956639566,0.0004892748
273.76,74.75,21703.0,4.6077e-05,8.3772,8.7216,43.034,40.895,100.73,602.52,0.026948,108.7,0.11513,liquid,CO2,C124389,carbon-dioxide,304.18,73.8,10.6,0.09433962264150944,0.9,1.0128726287262872,0.0004884161999999999
273.76,77.208,21741.0,4.5997e-05,8.3599,8.715,42.969,40.88,100.22,606.09,0.026141,109.22,0.11551,liquid,CO2,C124389,carbon-dioxide,304.18,73.8,10.6,0.09433962264150944,0.9,1.0461788617886179,0.0004875682
273.76,79.667,21777.0,4.5919e-05,8.3429,8.7087,42.904,40.867,99.733,609.58,0.025359,109.74,0.11587,liquid,CO2,C124389,carbon-dioxide,304.18,73.8,10.6,0.09433962264150944,0.9,1.0794986449864499,0.0004867413999999999
273.76,82.125,21814.0,4.5842e-05,8.3261,8.7026,42.841,40.855,99.26,613.01,0.024599,110.26,0.11624,liquid,CO2,C124389,carbon-dioxide,304.18,73.8,10.6,0.09433962264150944,0.9,1.1128048780487805,0.00048592519999999997
273.76,84.583,21850.0,4.5767e-05,8.3096,8.6967,42.778,40.844,98.804,616.38,0.023861,110.77,0.1166,liquid,CO2,C124389,carbon-dioxide,304.18,73.8,10.6,0.09433962264150944,0.9,1.146111111111111,0.0004851301999999999
273.76,87.042,21885.0,4.5693e-05,8.2933,8.691,42.716,40.834,98.362,619.7,0.023144,111.27,0.11696,liquid,CO2,C124389,carbon-dioxide,304.18,73.8,10.6,0.09433962264150944,0.9,1.179430894308943,0.00048434579999999996
273.76,89.5,21920.0,4.5621e-05,8.2772,8.6855,42.655,40.826,97.934,622.96,0.022446,111.77,0.11731,liquid,CO2,C124389,carbon-dioxide,304.18,73.8,10.6,0.09433962264150944,0.9,1.2127371273712737,0.00048358259999999997
273.76,91.958,21954.0,4.555e-05,8.2613,8.6802,42.595,40.818,97.52,626.17,0.021767,112.27,0.11766,liquid,CO2,C124389,carbon-dioxide,304.18,73.8,10.6,0.09433962264150944,0.9,1.2460433604336043,0.00048283
273.76,94.417,21988.0,4.548e-05,8.2456,8.6751,42.535,40.811,97.119,629.33,0.021106,112.76,0.11801,liquid,CO2,C124389,carbon-dioxide,304.18,73.8,10.6,0.09433962264150944,0.9,1.2793631436314363,0.00048208799999999993
273.76,96.875,22021.0,4.5411e-05,8.2302,8.6701,42.476,40.805,96.73,632.44,0.020462,113.25,0.11835,liquid,CO2,C124389,carbon-dioxide,304.18,73.8,10.6,0.09433962264150944,0.9,1.312669376693767,0.0004813566
273.76,99.333,22054.0,4.5343e-05,8.2149,8.6653,42.418,40.8,96.352,635.51,0.019834,113.74,0.11869,liquid,CO2,C124389,carbon-dioxide,304.18,73.8,10.6,0.09433962264150944,0.9,1.3459756097560975,0.0004806358
273.76,101.79,22087.0,4.5276e-05,8.1998,8.6607,42.361,40.796,95.985,638.54,0.019222,114.22,0.11903,liquid,CO2,C124389,carbon-dioxide,304.18,73.8,10.6,0.09433962264150944,0.9,1.379268292682927,0.00047992559999999996
273.76,104.25,22119.0,4.5211e-05,8.1849,8.6562,42.304,40.792,95.629,641.53,0.018624,114.7,0.11936,liquid,CO2,C124389,carbon-dioxide,304.18,73.8,10.6,0.09433962264150944,0.9,1.4126016260162602,0.00047923659999999995
273.76,106.71,22150.0,4.5146e-05,8.1702,8.6519,42.248,40.789,95.282,644.47,0.018041,115.17,0.1197,liquid,CO2,C124389,carbon-dioxide,304.18,73.8,10.6,0.09433962264150944,0.9,1.4459349593495934,0.00047854759999999994
273.76,109.17,22181.0,4.5083e-05,8.1556,8.6478,42.192,40.786,94.945,647.38,0.017471,115.64,0.12002,liquid,CO2,C124389,carbon-dioxide,304.18,73.8,10.6,0.09433962264150944,0.9,1.4792682926829268,0.0004778798
273.76,111.63,22212.0,4.502e-05,8.1412,8.6438,42.137,40.784,94.617,650.26,0.016915,116.11,0.12035,liquid,CO2,C124389,carbon-dioxide,304.18,73.8,10.6,0.09433962264150944,0.9,1.5126016260162602,0.00047721199999999997
273.76,114.08,22243.0,4.4959e-05,8.127,8.6399,42.082,40.782,94.298,653.09,0.016371,116.57,0.12067,liquid,CO2,C124389,carbon-dioxide,304.18,73.8,10.6,0.09433962264150944,0.9,1.54579945799458,0.0004765654
273.76,116.54,22273.0,4.4898e-05,8.1129,8.6362,42.028,40.781,93.987,655.9,0.015839,117.03,0.12099,liquid,CO2,C124389,carbon-dioxide,304.18,73.8,10.6,0.09433962264150944,0.9,1.5791327913279134,0.0004759188
273.76,119.0,22303.0,4.4838e-05,8.099,8.6326,41.975,40.78,93.684,658.67,0.015319,117.49,0.12131,liquid,CO2,C124389,carbon-dioxide,304.18,73.8,10.6,0.09433962264150944,0.9,1.6124661246612466,0.00047528279999999994
273.76,121.46,22332.0,4.4779e-05,8.0853,8.6291,41.922,40.779,93.388,661.42,0.01481,117.95,0.12163,liquid,CO2,C124389,carbon-dioxide,304.18,73.8,10.6,0.09433962264150944,0.9,1.6457994579945798,0.00047465739999999994
273.76,123.92,22361.0,4.4721e-05,8.0716,8.6258,41.87,40.779,93.1,664.13,0.014312,118.4,0.12194,liquid,CO2,C124389,carbon-dioxide,304.18,73.8,10.6,0.09433962264150944,0.9,1.6791327913279133,0.0004740426
273.76,126.38,22390.0,4.4663e-05,8.0582,8.6226,41.818,40.779,92.818,666.81,0.013824,118.85,0.12225,liquid,CO2,C124389,carbon-dioxide,304.18,73.8,10.6,0.09433962264150944,0.9,1.7124661246612467,0.0004734278
273.76,128.83,22418.0,4.4607e-05,8.0448,8.6195,41.766,40.779,92.544,669.47,0.013346,119.29,0.12256,liquid,CO2,C124389,carbon-dioxide,304.18,73.8,10.6,0.09433962264150944,0.9,1.7456639566395666,0.0004728342
273.76,131.29,22446.0,4.4551e-05,8.0316,8.6165,41.715,40.78,92.275,672.09,0.012878,119.74,0.12286,liquid,CO2,C124389,carbon-dioxide,304.18,73.8,10.6,0.09433962264150944,0.9,1.7789972899728996,0.00047224059999999995
273.76,133.75,22474.0,4.4495e-05,8.0185,8.6136,41.665,40.781,92.013,674.69,0.01242,120.18,0.12317,liquid,CO2,C124389,carbon-dioxide,304.18,73.8,10.6,0.09433962264150944,0.9,1.812330623306233,0.00047164699999999995
273.76,136.21,22502.0,4.4441e-05,8.0056,8.6109,41.615,40.782,91.757,677.27,0.01197,120.62,0.12347,liquid,CO2,C124389,carbon-dioxide,304.18,73.8,10.6,0.09433962264150944,0.9,1.8456639566395665,0.0004710745999999999
273.76,138.67,22529.0,4.4387e-05,7.9927,8.6082,41.565,40.783,91.507,679.82,0.01153,121.06,0.12377,liquid,CO2,C124389,carbon-dioxide,304.18,73.8,10.6,0.09433962264150944,0.9,1.8789972899728997,0.0004705022
273.76,141.13,22556.0,4.4334e-05,7.98,8.6057,41.516,40.784,91.262,682.35,0.011097,121.49,0.12407,liquid,CO2,C124389,carbon-dioxide,304.18,73.8,10.6,0.09433962264150944,0.9,1.9123306233062332,0.00046994039999999994
273.76,143.58,22583.0,4.4282e-05,7.9675,8.6033,41.468,40.786,91.022,684.85,0.010673,121.92,0.12436,liquid,CO2,C124389,carbon-dioxide,304.18,73.8,10.6,0.09433962264150944,0.9,1.945528455284553,0.0004693892
273.76,146.04,22609.0,4.423e-05,7.955,8.6009,41.419,40.788,90.788,687.33,0.010257,122.35,0.12466,liquid,CO2,C124389,carbon-dioxide,304.18,73.8,10.6,0.09433962264150944,0.9,1.978861788617886,0.00046883799999999996
273.76,148.5,22635.0,4.4179e-05,7.9426,8.5987,41.371,40.79,90.559,689.79,0.0098486,122.78,0.12495,liquid,CO2,C124389,carbon-dioxide,304.18,73.8,10.6,0.09433962264150944,0.9,2.0121951219512195,0.0004682973999999999
273.76,150.96,22661.0,4.4128e-05,7.9304,8.5965,41.324,40.792,90.334,692.23,0.0094476,123.21,0.12524,liquid,CO2,C124389,carbon-dioxide,304.18,73.8,10.6,0.09433962264150944,0.9,2.045528455284553,0.0004677568
273.76,153.42,22687.0,4.4078e-05,7.9183,8.5945,41.277,40.794,90.114,694.64,0.0090538,123.63,0.12553,liquid,CO2,C124389,carbon-dioxide,304.18,73.8,10.6,0.09433962264150944,0.9,2.078861788617886,0.00046722679999999995
273.76,155.88,22712.0,4.4029e-05,7.9062,8.5925,41.23,40.797,89.898,697.04,0.008667,124.05,0.12581,liquid,CO2,C124389,carbon-dioxide,304.18,73.8,10.6,0.09433962264150944,0.9,2.1121951219512196,0.0004667074
273.76,158.33,22738.0,4.398e-05,7.8943,8.5907,41.184,40.799,89.687,699.42,0.0082871,124.47,0.1261,liquid,CO2,C124389,carbon-dioxide,304.18,73.8,10.6,0.09433962264150944,0.9,2.1453929539295395,0.000466188
273.76,160.79,22763.0,4.3932e-05,7.8825,8.5889,41.138,40.802,89.48,701.77,0.0079137,124.89,0.12638,liquid,CO2,C124389,carbon-dioxide,304.18,73.8,10.6,0.09433962264150944,0.9,2.1787262872628728,0.00046567919999999994
273.76,163.25,22787.0,4.3884e-05,7.8708,8.5872,41.092,40.805,89.277,704.11,0.0075467,125.3,0.12666,liquid,CO2,C124389,carbon-dioxide,304.18,73.8,10.6,0.09433962264150944,0.9,2.212059620596206,0.00046517039999999997
273.76,165.71,22812.0,4.3837e-05,7.8591,8.5856,41.047,40.808,89.077,706.43,0.007186,125.72,0.12694,liquid,CO2,C124389,carbon-dioxide,304.18,73.8,10.6,0.09433962264150944,0.9,2.2453929539295396,0.00046467219999999997
273.76,168.17,22836.0,4.379e-05,7.8476,8.584,41.002,40.811,88.882,708.73,0.0068313,126.13,0.12722,liquid,CO2,C124389,carbon-dioxide,304.18,73.8,10.6,0.09433962264150944,0.9,2.2787262872628724,0.000464174
273.76,170.63,22860.0,4.3744e-05,7.8362,8.5826,40.957,40.814,88.69,711.01,0.0064825,126.54,0.12749,liquid,CO2,C124389,carbon-dioxide,304.18,73.8,10.6,0.09433962264150944,0.9,2.312059620596206,0.00046368639999999997
273.76,173.08,22884.0,4.3698e-05,7.8249,8.5812,40.913,40.817,88.502,713.28,0.0061394,126.95,0.12777,liquid,CO2,C124389,carbon-dioxide,304.18,73.8,10.6,0.09433962264150944,0.9,2.345257452574526,0.00046319879999999995
273.76,175.54,22908.0,4.3653e-05,7.8136,8.5799,40.869,40.82,88.317,715.53,0.0058019,127.35,0.12804,liquid,CO2,C124389,carbon-dioxide,304.18,73.8,10.6,0.09433962264150944,0.9,2.378590785907859,0.0004627217999999999
273.76,178.0,22931.0,4.3608e-05,7.8025,8.5787,40.825,40.824,88.136,717.76,0.0054698,127.76,0.12831,liquid,CO2,C124389,carbon-dioxide,304.18,73.8,10.6,0.09433962264150944,0.9,2.4119241192411924,0.00046224479999999995
273.76,180.46,22955.0,4.3564e-05,7.7914,8.5775,40.782,40.827,87.958,719.98,0.0051429,128.16,0.12858,liquid,CO2,C124389,carbon-dioxide,304.18,73.8,10.6,0.09433962264150944,0.9,2.445257452574526,0.00046177839999999996
273.76,182.92,22978.0,4.352e-05,7.7804,8.5765,40.739,40.831,87.783,722.18,0.0048213,128.56,0.12885,liquid,CO2,C124389,carbon-dioxide,304.18,73.8,10.6,0.09433962264150944,0.9,2.478590785907859,0.0004613119999999999
273.76,185.38,23001.0,4.3477e-05,7.7695,8.5754,40.696,40.834,87.611,724.37,0.0045046,128.96,0.12912,liquid,CO2,C124389,carbon-dioxide,304.18,73.8,10.6,0.09433962264150944,0.9,2.5119241192411925,0.00046085619999999995
273.76,187.83,23024.0,4.3434e-05,7.7587,8.5745,40.654,40.838,87.442,726.54,0.0041928,129.36,0.12939,liquid,CO2,C124389,carbon-dioxide,304.18,73.8,10.6,0.09433962264150944,0.9,2.5451219512195125,0.00046040039999999994
273.76,190.29,23046.0,4.3391e-05,7.7479,8.5736,40.612,40.842,87.276,728.69,0.0038857,129.76,0.12965,liquid,CO2,C124389,carbon-dioxide,304.18,73.8,10.6,0.09433962264150944,0.9,2.5784552845528457,0.00045994459999999993
273.76,192.75,23069.0,4.3349e-05,7.7373,8.5728,40.57,40.846,87.113,730.83,0.0035833,130.15,0.12991,liquid,CO2,C124389,carbon-dioxide,304.18,73.8,10.6,0.09433962264150944,0.9,2.611788617886179,0.00045949939999999996
273.76,195.21,23091.0,4.3307e-05,7.7267,8.5721,40.528,40.849,86.952,732.96,0.0032855,130.54,0.13017,liquid,CO2,C124389,carbon-dioxide,304.18,73.8,10.6,0.09433962264150944,0.9,2.6451219512195125,0.00045905419999999993
273.76,197.67,23113.0,4.3266e-05,7.7162,8.5714,40.487,40.853,86.795,735.07,0.002992,130.94,0.13044,liquid,CO2,C124389,carbon-dioxide,304.18,73.8,10.6,0.09433962264150944,0.9,2.6784552845528453,0.0004586196
273.76,200.12,23135.0,4.3225e-05,7.7058,8.5708,40.446,40.857,86.639,737.17,0.0027028,131.33,0.13069,liquid,CO2,C124389,carbon-dioxide,304.18,73.8,10.6,0.09433962264150944,0.9,2.7116531165311657,0.00045818499999999995
273.76,202.58,23156.0,4.3185e-05,7.6954,8.5703,40.405,40.861,86.487,739.26,0.0024179,131.72,0.13095,liquid,CO2,C124389,carbon-dioxide,304.18,73.8,10.6,0.09433962264150944,0.9,2.744986449864499,0.000457761
273.76,205.04,23178.0,4.3144e-05,7.6852,8.5698,40.365,40.865,86.336,741.33,0.002137,132.1,0.13121,liquid,CO2,C124389,carbon-dioxide,304.18,73.8,10.6,0.09433962264150944,0.9,2.778319783197832,0.00045732639999999995
273.76,207.5,23199.0,4.3105e-05,7.675,8.5694,40.324,40.869,86.188,743.39,0.0018601,132.49,0.13146,liquid,CO2,C124389,carbon-dioxide,304.18,73.8,10.6,0.09433962264150944,0.9,2.8116531165311653,0.000456913
273.76,209.96,23221.0,4.3065e-05,7.6648,8.569,40.284,40.873,86.043,745.44,0.0015872,132.88,0.13172,liquid,CO2,C124389,carbon-dioxide,304.18,73.8,10.6,0.09433962264150944,0.9,2.844986449864499,0.00045648899999999997
273.76,212.42,23242.0,4.3026e-05,7.6548,8.5687,40.245,40.878,85.9,747.47,0.0013181,133.26,0.13197,liquid,CO2,C124389,carbon-dioxide,304.18,73.8,10.6,0.09433962264150944,0.9,2.8783197831978318,0.00045607559999999995
273.76,214.87,23263.0,4.2987e-05,7.6448,8.5685,40.205,40.882,85.759,749.5,0.0010527,133.64,0.13222,liquid,CO2,C124389,carbon-dioxide,304.18,73.8,10.6,0.09433962264150944,0.9,2.911517615176152,0.0004556622
273.76,217.33,23283.0,4.2949e-05,7.6348,8.5683,40.166,40.886,85.62,751.51,0.00079097,134.03,0.13247,liquid,CO2,C124389,carbon-dioxide,304.18,73.8,10.6,0.09433962264150944,0.9,2.9448509485094854,0.00045525939999999993
273.76,219.79,23304.0,4.2911e-05,7.625,8.5681,40.127,40.89,85.483,753.51,0.00053281,134.41,0.13272,liquid,CO2,C124389,carbon-dioxide,304.18,73.8,10.6,0.09433962264150944,0.9,2.9781842818428186,0.0004548566
273.76,222.25,23325.0,4.2873e-05,7.6152,8.568,40.088,40.895,85.348,755.49,0.00027814,134.78,0.13297,liquid,CO2,C124389,carbon-dioxide,304.18,73.8,10.6,0.09433962264150944,0.9,3.011517615176152,0.00045445379999999996
273.76,224.71,23345.0,4.2836e-05,7.6055,8.568,40.049,40.899,85.215,757.47,2.6885e-05,135.16,0.13322,liquid,CO2,C124389,carbon-dioxide,304.18,73.8,10.6,0.09433962264150944,0.9,3.0448509485094855,0.0004540616