Temperature (K),Pressure (bar),Density (mol/m3),Volume (m3/mol),Internal Energy (kJ/mol),Enthalpy (kJ/mol),Entropy (J/mol*K),Cv (J/mol*K),Cp (J/mol*K),Sound Spd. (m/s),Joule-Thomson (K/bar),Viscosity (uPa*s),Therm. Cond. (W/m*K),Phase,substance,substance_id,substance_name,Tc,Pc,rhoc,Vmc,Tr,Pr,Vmr
304.18,450.88,22771.0,4.3916e-05,9.1137,11.094,45.401,40.444,78.396,780.61,-0.0048469,123.13,0.12873,supercritical,CO2,C124389,carbon-dioxide,304.18,73.8,10.6,0.09433962264150944,1.0,6.109485094850949,0.00046550959999999995
304.18,453.33,22788.0,4.3882e-05,9.1054,11.095,45.369,40.448,78.325,782.21,-0.0050284,123.41,0.12893,supercritical,CO2,C124389,carbon-dioxide,304.18,73.8,10.6,0.09433962264150944,1.0,6.142682926829268,0.00046514919999999995
304.18,455.79,22806.0,4.3848e-05,9.0971,11.096,45.336,40.452,78.255,783.81,-0.0052081,123.69,0.12914,supercritical,CO2,C124389,carbon-dioxide,304.18,73.8,10.6,0.09433962264150944,1.0,6.176016260162602,0.00046478879999999994
304.18,458.25,22824.0,4.3814e-05,9.0889,11.097,45.304,40.456,78.185,785.4,-0.005386,123.97,0.12935,supercritical,CO2,C124389,carbon-dioxide,304.18,73.8,10.6,0.09433962264150944,1.0,6.2093495934959355,0.00046442839999999994
304.18,460.71,22841.0,4.3781e-05,9.0807,11.098,45.272,40.46,78.116,786.98,-0.0055622,124.25,0.12955,supercritical,CO2,C124389,carbon-dioxide,304.18,73.8,10.6,0.09433962264150944,1.0,6.242682926829268,0.00046407859999999997
304.18,463.17,22858.0,4.3748e-05,9.0726,11.099,45.241,40.463,78.048,788.56,-0.0057366,124.53,0.12976,supercritical,CO2,C124389,carbon-dioxide,304.18,73.8,10.6,0.09433962264150944,1.0,6.276016260162602,0.0004637288
304.18,465.63,22876.0,4.3715e-05,9.0645,11.1,45.209,40.467,77.981,790.13,-0.0059093,124.81,0.12996,supercritical,CO2,C124389,carbon-dioxide,304.18,73.8,10.6,0.09433962264150944,1.0,6.309349593495935,0.00046337899999999993
304.18,468.08,22893.0,4.3682e-05,9.0564,11.101,45.177,40.471,77.914,791.7,-0.0060804,125.09,0.13016,supercritical,CO2,C124389,carbon-dioxide,304.18,73.8,10.6,0.09433962264150944,1.0,6.342547425474255,0.00046302919999999996
304.18,470.54,22910.0,4.3649e-05,9.0484,11.102,45.146,40.475,77.848,793.26,-0.0062497,125.37,0.13037,supercritical,CO2,C124389,carbon-dioxide,304.18,73.8,10.6,0.09433962264150944,1.0,6.375880758807589,0.0004626794
304.18,473.0,22927.0,4.3617e-05,9.0404,11.103,45.115,40.479,77.782,794.82,-0.0064175,125.64,0.13057,supercritical,CO2,C124389,carbon-dioxide,304.18,73.8,10.6,0.09433962264150944,1.0,6.409214092140922,0.00046234019999999995
304.18,475.46,22944.0,4.3584e-05,9.0325,11.105,45.084,40.483,77.717,796.37,-0.0065837,125.92,0.13077,supercritical,CO2,C124389,carbon-dioxide,304.18,73.8,10.6,0.09433962264150944,1.0,6.442547425474254,0.0004619904
304.18,477.92,22961.0,4.3552e-05,9.0246,11.106,45.053,40.488,77.653,797.91,-0.0067482,126.19,0.13097,supercritical,CO2,C124389,carbon-dioxide,304.18,73.8,10.6,0.09433962264150944,1.0,6.475880758807588,0.00046165119999999995
304.18,480.38,22978.0,4.3521e-05,9.0167,11.107,45.022,40.492,77.589,799.45,-0.0069112,126.47,0.13118,supercritical,CO2,C124389,carbon-dioxide,304.18,73.8,10.6,0.09433962264150944,1.0,6.509214092140922,0.00046132259999999995
304.18,482.83,22994.0,4.3489e-05,9.0088,11.109,44.991,40.496,77.526,800.98,-0.0070727,126.74,0.13138,supercritical,CO2,C124389,carbon-dioxide,304.18,73.8,10.6,0.09433962264150944,1.0,6.542411924119241,0.0004609834
304.18,485.29,23011.0,4.3458e-05,9.001,11.11,44.96,40.5,77.464,802.51,-0.0072327,127.02,0.13158,supercritical,CO2,C124389,carbon-dioxide,304.18,73.8,10.6,0.09433962264150944,1.0,6.575745257452575,0.0004606548
304.18,487.75,23028.0,4.3426e-05,8.9933,11.111,44.93,40.504,77.402,804.03,-0.0073912,127.29,0.13178,supercritical,CO2,C124389,carbon-dioxide,304.18,73.8,10.6,0.09433962264150944,1.0,6.609078590785908,0.0004603156
304.18,490.21,23044.0,4.3395e-05,8.9855,11.113,44.899,40.508,77.341,805.55,-0.0075482,127.56,0.13197,supercritical,CO2,C124389,carbon-dioxide,304.18,73.8,10.6,0.09433962264150944,1.0,6.642411924119241,0.00045998699999999997
304.18,492.67,23060.0,4.3364e-05,8.9778,11.114,44.869,40.512,77.281,807.06,-0.0077037,127.84,0.13217,supercritical,CO2,C124389,carbon-dioxide,304.18,73.8,10.6,0.09433962264150944,1.0,6.675745257452575,0.00045965839999999997
304.18,495.13,23077.0,4.3334e-05,8.9702,11.116,44.839,40.516,77.22,808.57,-0.0078579,128.11,0.13237,supercritical,CO2,C124389,carbon-dioxide,304.18,73.8,10.6,0.09433962264150944,1.0,6.709078590785908,0.0004593404
304.18,497.58,23093.0,4.3303e-05,8.9625,11.117,44.809,40.52,77.161,810.07,-0.0080106,128.38,0.13257,supercritical,CO2,C124389,carbon-dioxide,304.18,73.8,10.6,0.09433962264150944,1.0,6.742276422764228,0.0004590118
304.18,500.04,23109.0,4.3273e-05,8.9549,11.119,44.779,40.525,77.102,811.56,-0.0081619,128.65,0.13276,supercritical,CO2,C124389,carbon-dioxide,304.18,73.8,10.6,0.09433962264150944,1.0,6.775609756097562,0.00045869379999999993
304.18,502.5,23125.0,4.3243e-05,8.9474,11.12,44.749,40.529,77.044,813.05,-0.0083119,128.92,0.13296,supercritical,CO2,C124389,carbon-dioxide,304.18,73.8,10.6,0.09433962264150944,1.0,6.808943089430895,0.00045837579999999996
304.18,504.96,23141.0,4.3213e-05,8.9399,11.122,44.719,40.533,76.986,814.54,-0.0084605,129.19,0.13316,supercritical,CO2,C124389,carbon-dioxide,304.18,73.8,10.6,0.09433962264150944,1.0,6.842276422764227,0.0004580578
304.18,507.42,23157.0,4.3183e-05,8.9324,11.124,44.69,40.537,76.929,816.02,-0.0086078,129.46,0.13335,supercritical,CO2,C124389,carbon-dioxide,304.18,73.8,10.6,0.09433962264150944,1.0,6.875609756097561,0.0004577398
304.18,509.88,23173.0,4.3153e-05,8.9249,11.125,44.66,40.541,76.872,817.5,-0.0087537,129.73,0.13355,supercritical,CO2,C124389,carbon-dioxide,304.18,73.8,10.6,0.09433962264150944,1.0,6.9089430894308945,0.00045742179999999996
304.18,512.33,23189.0,4.3124e-05,8.9175,11.127,44.631,40.546,76.816,818.97,-0.0088984,130.0,0.13374,supercritical,CO2,C124389,carbon-dioxide,304.18,73.8,10.6,0.09433962264150944,1.0,6.942140921409215,0.0004571144
304.18,514.79,23205.0,4.3095e-05,8.9101,11.129,44.601,40.55,76.76,820.43,-0.0090418,130.27,0.13393,supercritical,CO2,C124389,carbon-dioxide,304.18,73.8,10.6,0.09433962264150944,1.0,6.975474254742547,0.000456807
304.18,517.25,23220.0,4.3066e-05,8.9027,11.13,44.572,40.554,76.705,821.89,-0.009184,130.54,0.13413,supercritical,CO2,C124389,carbon-dioxide,304.18,73.8,10.6,0.09433962264150944,1.0,7.008807588075881,0.00045649959999999996
304.18,519.71,23236.0,4.3037e-05,8.8953,11.132,44.543,40.558,76.65,823.35,-0.0093249,130.8,0.13432,supercritical,CO2,C124389,carbon-dioxide,304.18,73.8,10.6,0.09433962264150944,1.0,7.0421409214092145,0.00045619219999999997
304.18,522.17,23251.0,4.3008e-05,8.888,11.134,44.514,40.563,76.596,824.8,-0.0094645,131.07,0.13451,supercritical,CO2,C124389,carbon-dioxide,304.18,73.8,10.6,0.09433962264150944,1.0,7.075474254742547,0.00045588479999999994
304.18,524.63,23267.0,4.2979e-05,8.8808,11.136,44.485,40.567,76.542,826.25,-0.009603,131.34,0.1347,supercritical,CO2,C124389,carbon-dioxide,304.18,73.8,10.6,0.09433962264150944,1.0,7.108807588075881,0.0004555774
304.18,527.08,23282.0,4.2951e-05,8.8735,11.137,44.457,40.571,76.489,827.69,-0.0097402,131.6,0.1349,supercritical,CO2,C124389,carbon-dioxide,304.18,73.8,10.6,0.09433962264150944,1.0,7.142005420054201,0.0004552806
304.18,529.54,23298.0,4.2923e-05,8.8663,11.139,44.428,40.576,76.436,829.13,-0.0098763,131.87,0.13509,supercritical,CO2,C124389,carbon-dioxide,304.18,73.8,10.6,0.09433962264150944,1.0,7.175338753387534,0.0004549838
304.18,532.0,23313.0,4.2895e-05,8.8591,11.141,44.4,40.58,76.384,830.56,-0.010011,132.14,0.13528,supercritical,CO2,C124389,carbon-dioxide,304.18,73.8,10.6,0.09433962264150944,1.0,7.208672086720868,0.000454687
304.18,534.46,23328.0,4.2867e-05,8.8519,11.143,44.371,40.584,76.332,831.99,-0.010145,132.4,0.13547,supercritical,CO2,C124389,carbon-dioxide,304.18,73.8,10.6,0.09433962264150944,1.0,7.242005420054201,0.0004543902
304.18,536.92,23343.0,4.2839e-05,8.8448,11.145,44.343,40.589,76.28,833.41,-0.010278,132.66,0.13566,supercritical,CO2,C124389,carbon-dioxide,304.18,73.8,10.6,0.09433962264150944,1.0,7.275338753387533,0.00045409339999999995
304.18,539.38,23358.0,4.2811e-05,8.8377,11.147,44.315,40.593,76.229,834.83,-0.010409,132.93,0.13585,supercritical,CO2,C124389,carbon-dioxide,304.18,73.8,10.6,0.09433962264150944,1.0,7.308672086720867,0.00045379659999999995
304.18,541.83,23373.0,4.2784e-05,8.8306,11.149,44.286,40.597,76.179,836.25,-0.01054,133.19,0.13604,supercritical,CO2,C124389,carbon-dioxide,304.18,73.8,10.6,0.09433962264150944,1.0,7.341869918699188,0.0004535104
304.18,544.29,23388.0,4.2756e-05,8.8236,11.151,44.258,40.602,76.129,837.66,-0.010669,133.46,0.13622,supercritical,CO2,C124389,carbon-dioxide,304.18,73.8,10.6,0.09433962264150944,1.0,7.37520325203252,0.0004532136
304.18,546.75,23403.0,4.2729e-05,8.8166,11.153,44.23,40.606,76.079,839.06,-0.010797,133.72,0.13641,supercritical,CO2,C124389,carbon-dioxide,304.18,73.8,10.6,0.09433962264150944,1.0,7.408536585365854,0.0004529273999999999
304.18,549.21,23418.0,4.2702e-05,8.8096,11.155,44.203,40.611,76.03,840.46,-0.010924,133.98,0.1366,supercritical,CO2,C124389,carbon-dioxide,304.18,73.8,10.6,0.09433962264150944,1.0,7.4418699186991875,0.00045264119999999995
304.18,551.67,23433.0,4.2675e-05,8.8026,11.157,44.175,40.615,75.981,841.86,-0.011051,134.24,0.13679,supercritical,CO2,C124389,carbon-dioxide,304.18,73.8,10.6,0.09433962264150944,1.0,7.47520325203252,0.000452355
304.18,554.13,23448.0,4.2648e-05,8.7957,11.159,44.147,40.619,75.932,843.25,-0.011176,134.51,0.13697,supercritical,CO2,C124389,carbon-dioxide,304.18,73.8,10.6,0.09433962264150944,1.0,7.508536585365854,0.00045206879999999997
304.18,556.58,23462.0,4.2622e-05,8.7888,11.161,44.12,40.624,75.884,844.64,-0.0113,134.77,0.13716,supercritical,CO2,C124389,carbon-dioxide,304.18,73.8,10.6,0.09433962264150944,1.0,7.541734417344174,0.00045179319999999994
304.18,559.04,23477.0,4.2595e-05,8.7819,11.163,44.092,40.628,75.837,846.03,-0.011423,135.03,0.13734,supercritical,CO2,C124389,carbon-dioxide,304.18,73.8,10.6,0.09433962264150944,1.0,7.575067750677507,0.00045150699999999997
304.18,561.5,23491.0,4.2569e-05,8.7751,11.165,44.065,40.633,75.789,847.41,-0.011545,135.29,0.13753,supercritical,CO2,C124389,carbon-dioxide,304.18,73.8,10.6,0.09433962264150944,1.0,7.608401084010841,0.00045123139999999994
304.18,563.96,23506.0,4.2543e-05,8.7683,11.167,44.037,40.637,75.742,848.78,-0.011666,135.55,0.13771,supercritical,CO2,C124389,carbon-dioxide,304.18,73.8,10.6,0.09433962264150944,1.0,7.641734417344174,0.0004509558
304.18,566.42,23520.0,4.2516e-05,8.7615,11.17,44.01,40.641,75.696,850.15,-0.011786,135.81,0.1379,supercritical,CO2,C124389,carbon-dioxide,304.18,73.8,10.6,0.09433962264150944,1.0,7.675067750677506,0.00045066959999999994
304.18,568.88,23535.0,4.2491e-05,8.7547,11.172,43.983,40.646,75.65,851.52,-0.011905,136.07,0.13808,supercritical,CO2,C124389,carbon-dioxide,304.18,73.8,10.6,0.09433962264150944,1.0,7.70840108401084,0.00045040459999999994
304.18,571.33,23549.0,4.2465e-05,8.7479,11.174,43.956,40.65,75.604,852.89,-0.012023,136.33,0.13827,supercritical,CO2,C124389,carbon-dioxide,304.18,73.8,10.6,0.09433962264150944,1.0,7.741598915989161,0.00045012899999999996
304.18,573.79,23563.0,4.2439e-05,8.7412,11.176,43.929,40.655,75.559,854.25,-0.012141,136.59,0.13845,supercritical,CO2,C124389,carbon-dioxide,304.18,73.8,10.6,0.09433962264150944,1.0,7.774932249322493,0.0004498533999999999
304.18,576.25,23577.0,4.2413e-05,8.7345,11.179,43.902,40.659,75.514,855.6,-0.012257,136.85,0.13863,supercritical,CO2,C124389,carbon-dioxide,304.18,73.8,10.6,0.09433962264150944,1.0,7.808265582655827,0.0004495778
304.18,578.71,23592.0,4.2388e-05,8.7278,11.181,43.876,40.664,75.469,856.95,-0.012373,137.1,0.13882,supercritical,CO2,C124389,carbon-dioxide,304.18,73.8,10.6,0.09433962264150944,1.0,7.84159891598916,0.0004493128
304.18,581.17,23606.0,4.2363e-05,8.7212,11.183,43.849,40.668,75.425,858.3,-0.012487,137.36,0.139,supercritical,CO2,C124389,carbon-dioxide,304.18,73.8,10.6,0.09433962264150944,1.0,7.874932249322493,0.0004490478
304.18,583.63,23620.0,4.2338e-05,8.7146,11.186,43.822,40.673,75.381,859.65,-0.012601,137.62,0.13918,supercritical,CO2,C124389,carbon-dioxide,304.18,73.8,10.6,0.09433962264150944,1.0,7.908265582655827,0.00044878279999999995
304.18,586.08,23634.0,4.2313e-05,8.708,11.188,43.796,40.677,75.337,860.99,-0.012713,137.88,0.13936,supercritical,CO2,C124389,carbon-dioxide,304.18,73.8,10.6,0.09433962264150944,1.0,7.941463414634147,0.00044851779999999995
304.18,588.54,23648.0,4.2288e-05,8.7014,11.19,43.769,40.682,75.294,862.32,-0.012825,138.13,0.13954,supercritical,CO2,C124389,carbon-dioxide,304.18,73.8,10.6,0.09433962264150944,1.0,7.9747967479674795,0.00044825279999999995
304.18,591.0,23661.0,4.2263e-05,8.6949,11.193,43.743,40.686,75.251,863.65,-0.012936,138.39,0.13972,supercritical,CO2,C124389,carbon-dioxide,304.18,73.8,10.6,0.09433962264150944,1.0,8.008130081300813,0.00044798779999999995
304.18,593.46,23675.0,4.2238e-05,8.6884,11.195,43.717,40.691,75.209,864.98,-0.013046,138.65,0.1399,supercritical,CO2,C124389,carbon-dioxide,304.18,73.8,10.6,0.09433962264150944,1.0,8.041463414634148,0.00044772279999999995
304.18,595.92,23689.0,4.2214e-05,8.6819,11.197,43.691,40.696,75.166,866.31,-0.013156,138.9,0.14008,supercritical,CO2,C124389,carbon-dioxide,304.18,73.8,10.6,0.09433962264150944,1.0,8.07479674796748,0.00044746839999999994
304.18,598.38,23703.0,4.2189e-05,8.6754,11.2,43.665,40.7,75.125,867.63,-0.013264,139.16,0.14026,supercritical,CO2,C124389,carbon-dioxide,304.18,73.8,10.6,0.09433962264150944,1.0,8.108130081300814,0.00044720339999999994
304.18,600.83,23716.0,4.2165e-05,8.6689,11.202,43.639,40.705,75.083,868.95,-0.013372,139.41,0.14044,supercritical,CO2,C124389,carbon-dioxide,304.18,73.8,10.6,0.09433962264150944,1.0,8.141327913279135,0.000446949
304.18,603.29,23730.0,4.2141e-05,8.6625,11.205,43.613,40.709,75.042,870.26,-0.013479,139.67,0.14062,supercritical,CO2,C124389,carbon-dioxide,304.18,73.8,10.6,0.09433962264150944,1.0,8.174661246612466,0.00044669459999999996
304.18,605.75,23744.0,4.2117e-05,8.6561,11.207,43.587,40.714,75.001,871.57,-0.013585,139.92,0.1408,supercritical,CO2,C124389,carbon-dioxide,304.18,73.8,10.6,0.09433962264150944,1.0,8.2079945799458,0.00044644019999999995
304.18,608.21,23757.0,4.2093e-05,8.6497,11.21,43.561,40.718,74.96,872.88,-0.01369,140.18,0.14098,supercritical,CO2,C124389,carbon-dioxide,304.18,73.8,10.6,0.09433962264150944,1.0,8.241327913279134,0.00044618579999999993
304.18,610.67,23771.0,4.2069e-05,8.6434,11.212,43.535,40.723,74.92,874.18,-0.013795,140.43,0.14115,supercritical,CO2,C124389,carbon-dioxide,304.18,73.8,10.6,0.09433962264150944,1.0,8.274661246612466,0.00044593139999999997
304.18,613.13,23784.0,4.2045e-05,8.637,11.215,43.51,40.728,74.88,875.48,-0.013898,140.69,0.14133,supercritical,CO2,C124389,carbon-dioxide,304.18,73.8,10.6,0.09433962264150944,1.0,8.3079945799458,0.000445677
304.18,615.58,23797.0,4.2021e-05,8.6307,11.217,43.484,40.732,74.84,876.77,-0.014001,140.94,0.14151,supercritical,CO2,C124389,carbon-dioxide,304.18,73.8,10.6,0.09433962264150944,1.0,8.341192411924121,0.0004454226
304.18,618.04,23811.0,4.1998e-05,8.6244,11.22,43.459,40.737,74.801,878.06,-0.014103,141.19,0.14169,supercritical,CO2,C124389,carbon-dioxide,304.18,73.8,10.6,0.09433962264150944,1.0,8.374525745257452,0.00044517879999999996
304.18,620.5,23824.0,4.1974e-05,8.6181,11.223,43.433,40.741,74.762,879.35,-0.014205,141.45,0.14186,supercritical,CO2,C124389,carbon-dioxide,304.18,73.8,10.6,0.09433962264150944,1.0,8.407859078590786,0.0004449244
304.18,622.96,23837.0,4.1951e-05,8.6119,11.225,43.408,40.746,74.723,880.64,-0.014305,141.7,0.14204,supercritical,CO2,C124389,carbon-dioxide,304.18,73.8,10.6,0.09433962264150944,1.0,8.44119241192412,0.00044468059999999997
304.18,625.42,23850.0,4.1928e-05,8.6057,11.228,43.383,40.751,74.684,881.92,-0.014405,141.95,0.14221,supercritical,CO2,C124389,carbon-dioxide,304.18,73.8,10.6,0.09433962264150944,1.0,8.474525745257452,0.0004444368
304.18,627.88,23864.0,4.1905e-05,8.5995,11.231,43.358,40.755,74.646,883.2,-0.014504,142.2,0.14239,supercritical,CO2,C124389,carbon-dioxide,304.18,73.8,10.6,0.09433962264150944,1.0,8.507859078590787,0.00044419299999999995
304.18,630.33,23877.0,4.1882e-05,8.5933,11.233,43.333,40.76,74.608,884.47,-0.014603,142.45,0.14256,supercritical,CO2,C124389,carbon-dioxide,304.18,73.8,10.6,0.09433962264150944,1.0,8.541056910569107,0.00044394920000000003
304.18,632.79,23890.0,4.1859e-05,8.5871,11.236,43.308,40.764,74.57,885.74,-0.014701,142.71,0.14274,supercritical,CO2,C124389,carbon-dioxide,304.18,73.8,10.6,0.09433962264150944,1.0,8.574390243902439,0.0004437054
304.18,635.25,23903.0,4.1836e-05,8.581,11.239,43.283,40.769,74.533,887.01,-0.014798,142.96,0.14291,supercritical,CO2,C124389,carbon-dioxide,304.18,73.8,10.6,0.09433962264150944,1.0,8.607723577235772,0.00044346159999999996
304.18,637.71,23916.0,4.1814e-05,8.5749,11.241,43.258,40.774,74.496,888.28,-0.014894,143.21,0.14309,supercritical,CO2,C124389,carbon-dioxide,304.18,73.8,10.6,0.09433962264150944,1.0,8.641056910569107,0.0004432284
304.18,640.17,23929.0,4.1791e-05,8.5688,11.244,43.233,40.778,74.459,889.54,-0.01499,143.46,0.14326,supercritical,CO2,C124389,carbon-dioxide,304.18,73.8,10.6,0.09433962264150944,1.0,8.674390243902439,0.0004429846
304.18,642.63,23941.0,4.1768e-05,8.5627,11.247,43.208,40.783,74.422,890.79,-0.015085,143.71,0.14343,supercritical,CO2,C124389,carbon-dioxide,304.18,73.8,10.6,0.09433962264150944,1.0,8.707723577235774,0.00044274079999999995
304.18,645.08,23954.0,4.1746e-05,8.5566,11.25,43.184,40.788,74.386,892.05,-0.015179,143.96,0.14361,supercritical,CO2,C124389,carbon-dioxide,304.18,73.8,10.6,0.09433962264150944,1.0,8.740921409214094,0.0004425076
304.18,647.54,23967.0,4.1724e-05,8.5506,11.252,43.159,40.792,74.35,893.3,-0.015273,144.21,0.14378,supercritical,CO2,C124389,carbon-dioxide,304.18,73.8,10.6,0.09433962264150944,1.0,8.774254742547425,0.0004422744
304.18,650.0,23980.0,4.1702e-05,8.5446,11.255,43.135,40.797,74.314,894.55,-0.015366,144.46,0.14395,supercritical,CO2,C124389,carbon-dioxide,304.18,73.8,10.6,0.09433962264150944,1.0,8.807588075880759,0.00044204119999999996
304.18,652.46,23993.0,4.168e-05,8.5386,11.258,43.11,40.802,74.279,895.79,-0.015458,144.71,0.14412,supercritical,CO2,C124389,carbon-dioxide,304.18,73.8,10.6,0.09433962264150944,1.0,8.840921409214094,0.00044180799999999997
304.18,654.92,24005.0,4.1658e-05,8.5326,11.261,43.086,40.806,74.243,897.03,-0.01555,144.96,0.1443,supercritical,CO2,C124389,carbon-dioxide,304.18,73.8,10.6,0.09433962264150944,1.0,8.874254742547425,0.00044157479999999997
304.18,657.38,24018.0,4.1636e-05,8.5266,11.264,43.062,40.811,74.208,898.27,-0.015641,145.2,0.14447,supercritical,CO2,C124389,carbon-dioxide,304.18,73.8,10.6,0.09433962264150944,1.0,8.90758807588076,0.0004413416
304.18,659.83,24030.0,4.1614e-05,8.5207,11.267,43.037,40.816,74.173,899.51,-0.015731,145.45,0.14464,supercritical,CO2,C124389,carbon-dioxide,304.18,73.8,10.6,0.09433962264150944,1.0,8.94078590785908,0.0004411083999999999
304.18,662.29,24043.0,4.1592e-05,8.5148,11.269,43.013,40.821,74.139,900.74,-0.015821,145.7,0.14481,supercritical,CO2,C124389,carbon-dioxide,304.18,73.8,10.6,0.09433962264150944,1.0,8.974119241192412,0.00044087519999999993
304.18,664.75,24055.0,4.1571e-05,8.5089,11.272,42.989,40.825,74.105,901.97,-0.01591,145.95,0.14498,supercritical,CO2,C124389,carbon-dioxide,304.18,73.8,10.6,0.09433962264150944,1.0,9.007452574525745,0.00044065259999999997
304.18,667.21,24068.0,4.1549e-05,8.503,11.275,42.965,40.83,74.07,903.19,-0.015999,146.2,0.14515,supercritical,CO2,C124389,carbon-dioxide,304.18,73.8,10.6,0.09433962264150944,1.0,9.04078590785908,0.0004404194
304.18,669.67,24080.0,4.1528e-05,8.4971,11.278,42.941,40.835,74.037,904.42,-0.016087,146.44,0.14532,supercritical,CO2,C124389,carbon-dioxide,304.18,73.8,10.6,0.09433962264150944,1.0,9.074119241192411,0.00044019679999999996