Temperature (K),Pressure (bar),Density (mol/m3),Volume (m3/mol),Internal Energy (kJ/mol),Enthalpy (kJ/mol),Entropy (J/mol*K),Cv (J/mol*K),Cp (J/mol*K),Sound Spd. (m/s),Joule-Thomson (K/bar),Viscosity (uPa*s),Therm. Cond. (W/m*K),Phase,substance,substance_id,substance_name,Tc,Pc,rhoc,Vmc,Tr,Pr,Vmr
231.87,519.7,23259.0,4.2994e-05,1.3343,3.5687,135.34,24.233,46.539,594.68,-0.0058295,55.654,0.076375,supercritical,O2,C7782447,oxygen,154.58,50.43,13.6,0.07352941176470588,1.5,10.305373785445173,0.0005847184
231.87,521.07,23282.0,4.2951e-05,1.331,3.5691,135.31,24.236,46.518,595.53,-0.0060235,55.747,0.076489,supercritical,O2,C7782447,oxygen,154.58,50.43,13.6,0.07352941176470588,1.5,10.332540154669841,0.0005841336
231.87,522.43,23305.0,4.2909e-05,1.3278,3.5694,135.29,24.24,46.497,596.38,-0.0062161,55.839,0.076602,supercritical,O2,C7782447,oxygen,154.58,50.43,13.6,0.07352941176470588,1.5,10.359508229228632,0.0005835624
231.87,523.79,23328.0,4.2866e-05,1.3245,3.5698,135.27,24.243,46.476,597.23,-0.0064074,55.932,0.076715,supercritical,O2,C7782447,oxygen,154.58,50.43,13.6,0.07352941176470588,1.5,10.386476303787427,0.0005829775999999999
231.87,525.16,23351.0,4.2824e-05,1.3213,3.5703,135.24,24.247,46.456,598.08,-0.0065975,56.024,0.076828,supercritical,O2,C7782447,oxygen,154.58,50.43,13.6,0.07352941176470588,1.5,10.413642673012095,0.0005824064
231.87,526.52,23374.0,4.2783e-05,1.3181,3.5707,135.22,24.25,46.435,598.92,-0.0067862,56.116,0.076941,supercritical,O2,C7782447,oxygen,154.58,50.43,13.6,0.07352941176470588,1.5,10.44061074757089,0.0005818488
231.87,527.89,23397.0,4.2741e-05,1.3149,3.5711,135.19,24.254,46.414,599.77,-0.0069737,56.208,0.077053,supercritical,O2,C7782447,oxygen,154.58,50.43,13.6,0.07352941176470588,1.5,10.467777116795558,0.0005812776
231.87,529.25,23419.0,4.27e-05,1.3117,3.5716,135.17,24.257,46.394,600.61,-0.00716,56.3,0.077166,supercritical,O2,C7782447,oxygen,154.58,50.43,13.6,0.07352941176470588,1.5,10.494745191354353,0.00058072
231.87,530.62,23442.0,4.2659e-05,1.3085,3.572,135.15,24.261,46.374,601.45,-0.0073451,56.393,0.077279,supercritical,O2,C7782447,oxygen,154.58,50.43,13.6,0.07352941176470588,1.5,10.52191156057902,0.0005801624
231.87,531.99,23464.0,4.2618e-05,1.3053,3.5725,135.13,24.264,46.353,602.29,-0.0075289,56.484,0.077391,supercritical,O2,C7782447,oxygen,154.58,50.43,13.6,0.07352941176470588,1.5,10.549077929803689,0.0005796047999999999
231.87,533.35,23487.0,4.2577e-05,1.3021,3.573,135.1,24.268,46.333,603.13,-0.0077115,56.576,0.077503,supercritical,O2,C7782447,oxygen,154.58,50.43,13.6,0.07352941176470588,1.5,10.576046004362484,0.0005790472
231.87,534.72,23509.0,4.2537e-05,1.299,3.5735,135.08,24.271,46.313,603.97,-0.0078929,56.668,0.077615,supercritical,O2,C7782447,oxygen,154.58,50.43,13.6,0.07352941176470588,1.5,10.603212373587152,0.0005785032
231.87,536.08,23531.0,4.2496e-05,1.2958,3.574,135.06,24.274,46.293,604.81,-0.0080731,56.76,0.077728,supercritical,O2,C7782447,oxygen,154.58,50.43,13.6,0.07352941176470588,1.5,10.630180448145946,0.0005779455999999999
231.87,537.45,23554.0,4.2456e-05,1.2927,3.5745,135.03,24.278,46.273,605.64,-0.0082522,56.852,0.07784,supercritical,O2,C7782447,oxygen,154.58,50.43,13.6,0.07352941176470588,1.5,10.657346817370614,0.0005774016
231.87,538.81,23576.0,4.2416e-05,1.2896,3.575,135.01,24.281,46.254,606.47,-0.0084301,56.943,0.077951,supercritical,O2,C7782447,oxygen,154.58,50.43,13.6,0.07352941176470588,1.5,10.684314891929406,0.0005768576
231.87,540.17,23598.0,4.2377e-05,1.2865,3.5756,134.99,24.285,46.234,607.3,-0.0086068,57.035,0.078063,supercritical,O2,C7782447,oxygen,154.58,50.43,13.6,0.07352941176470588,1.5,10.7112829664882,0.0005763271999999999
231.87,541.54,23620.0,4.2337e-05,1.2834,3.5761,134.97,24.288,46.215,608.13,-0.0087824,57.126,0.078175,supercritical,O2,C7782447,oxygen,154.58,50.43,13.6,0.07352941176470588,1.5,10.738449335712868,0.0005757831999999999
231.87,542.9,23642.0,4.2298e-05,1.2803,3.5767,134.94,24.292,46.195,608.96,-0.0089568,57.218,0.078286,supercritical,O2,C7782447,oxygen,154.58,50.43,13.6,0.07352941176470588,1.5,10.765417410271663,0.0005752528
231.87,544.27,23664.0,4.2259e-05,1.2772,3.5772,134.92,24.295,46.176,609.79,-0.0091301,57.309,0.078398,supercritical,O2,C7782447,oxygen,154.58,50.43,13.6,0.07352941176470588,1.5,10.792583779496331,0.0005747224
231.87,545.63,23685.0,4.222e-05,1.2741,3.5778,134.9,24.298,46.157,610.61,-0.0093023,57.4,0.078509,supercritical,O2,C7782447,oxygen,154.58,50.43,13.6,0.07352941176470588,1.5,10.819551854055126,0.000574192
231.87,547.0,23707.0,4.2181e-05,1.2711,3.5784,134.88,24.302,46.137,611.44,-0.0094734,57.492,0.07862,supercritical,O2,C7782447,oxygen,154.58,50.43,13.6,0.07352941176470588,1.5,10.846718223279794,0.0005736616
231.87,548.37,23729.0,4.2143e-05,1.268,3.579,134.85,24.305,46.118,612.26,-0.0096434,57.583,0.078732,supercritical,O2,C7782447,oxygen,154.58,50.43,13.6,0.07352941176470588,1.5,10.873884592504462,0.0005731448
231.87,549.73,23750.0,4.2105e-05,1.265,3.5796,134.83,24.309,46.099,613.08,-0.0098124,57.674,0.078843,supercritical,O2,C7782447,oxygen,154.58,50.43,13.6,0.07352941176470588,1.5,10.900852667063257,0.0005726279999999999
231.87,551.1,23772.0,4.2067e-05,1.262,3.5802,134.81,24.312,46.081,613.9,-0.0099802,57.765,0.078953,supercritical,O2,C7782447,oxygen,154.58,50.43,13.6,0.07352941176470588,1.5,10.928019036287925,0.0005721112
231.87,552.46,23793.0,4.2029e-05,1.2589,3.5809,134.79,24.315,46.062,614.72,-0.010147,57.856,0.079064,supercritical,O2,C7782447,oxygen,154.58,50.43,13.6,0.07352941176470588,1.5,10.95498711084672,0.0005715944
231.87,553.83,23815.0,4.1991e-05,1.2559,3.5815,134.77,24.319,46.043,615.53,-0.010313,57.947,0.079175,supercritical,O2,C7782447,oxygen,154.58,50.43,13.6,0.07352941176470588,1.5,10.982153480071387,0.0005710776
231.87,555.19,23836.0,4.1954e-05,1.2529,3.5822,134.74,24.322,46.024,616.35,-0.010477,58.038,0.079286,supercritical,O2,C7782447,oxygen,154.58,50.43,13.6,0.07352941176470588,1.5,11.009121554630182,0.0005705743999999999
231.87,556.55,23857.0,4.1916e-05,1.25,3.5828,134.72,24.326,46.006,617.16,-0.010641,58.128,0.079396,supercritical,O2,C7782447,oxygen,154.58,50.43,13.6,0.07352941176470588,1.5,11.036089629188973,0.0005700576
231.87,557.92,23878.0,4.1879e-05,1.247,3.5835,134.7,24.329,45.988,617.98,-0.010804,58.219,0.079506,supercritical,O2,C7782447,oxygen,154.58,50.43,13.6,0.07352941176470588,1.5,11.063255998413641,0.0005695543999999999
231.87,559.28,23899.0,4.1842e-05,1.244,3.5842,134.68,24.332,45.969,618.79,-0.010965,58.31,0.079617,supercritical,O2,C7782447,oxygen,154.58,50.43,13.6,0.07352941176470588,1.5,11.090224072972436,0.0005690512
231.87,560.65,23920.0,4.1806e-05,1.2411,3.5849,134.66,24.336,45.951,619.6,-0.011126,58.4,0.079727,supercritical,O2,C7782447,oxygen,154.58,50.43,13.6,0.07352941176470588,1.5,11.117390442197104,0.0005685616
231.87,562.01,23941.0,4.1769e-05,1.2381,3.5856,134.64,24.339,45.933,620.41,-0.011285,58.491,0.079837,supercritical,O2,C7782447,oxygen,154.58,50.43,13.6,0.07352941176470588,1.5,11.144358516755899,0.0005680584
231.87,563.38,23962.0,4.1733e-05,1.2352,3.5863,134.61,24.342,45.915,621.21,-0.011444,58.581,0.079947,supercritical,O2,C7782447,oxygen,154.58,50.43,13.6,0.07352941176470588,1.5,11.171524885980567,0.0005675688
231.87,564.75,23983.0,4.1696e-05,1.2322,3.587,134.59,24.346,45.897,622.02,-0.011602,58.672,0.080057,supercritical,O2,C7782447,oxygen,154.58,50.43,13.6,0.07352941176470588,1.5,11.198691255205235,0.0005670656
231.87,566.11,24004.0,4.166e-05,1.2293,3.5878,134.57,24.349,45.879,622.82,-0.011758,58.762,0.080167,supercritical,O2,C7782447,oxygen,154.58,50.43,13.6,0.07352941176470588,1.5,11.22565932976403,0.000566576
231.87,567.48,24024.0,4.1624e-05,1.2264,3.5885,134.55,24.353,45.861,623.62,-0.011914,58.853,0.080276,supercritical,O2,C7782447,oxygen,154.58,50.43,13.6,0.07352941176470588,1.5,11.252825698988698,0.0005660864
231.87,568.84,24045.0,4.1589e-05,1.2235,3.5892,134.53,24.356,45.843,624.43,-0.012069,58.943,0.080386,supercritical,O2,C7782447,oxygen,154.58,50.43,13.6,0.07352941176470588,1.5,11.279793773547492,0.0005656104
231.87,570.21,24066.0,4.1553e-05,1.2206,3.59,134.51,24.359,45.826,625.23,-0.012222,59.033,0.080495,supercritical,O2,C7782447,oxygen,154.58,50.43,13.6,0.07352941176470588,1.5,11.30696014277216,0.0005651208
231.87,571.57,24086.0,4.1518e-05,1.2177,3.5908,134.49,24.363,45.808,626.03,-0.012375,59.123,0.080605,supercritical,O2,C7782447,oxygen,154.58,50.43,13.6,0.07352941176470588,1.5,11.333928217330955,0.0005646447999999999
231.87,572.93,24106.0,4.1483e-05,1.2149,3.5916,134.47,24.366,45.791,626.82,-0.012527,59.213,0.080714,supercritical,O2,C7782447,oxygen,154.58,50.43,13.6,0.07352941176470588,1.5,11.360896291889746,0.0005641688
231.87,574.3,24127.0,4.1448e-05,1.212,3.5923,134.44,24.369,45.773,627.62,-0.012678,59.303,0.080823,supercritical,O2,C7782447,oxygen,154.58,50.43,13.6,0.07352941176470588,1.5,11.388062661114414,0.0005636928
231.87,575.66,24147.0,4.1413e-05,1.2092,3.5931,134.42,24.373,45.756,628.41,-0.012828,59.393,0.080932,supercritical,O2,C7782447,oxygen,154.58,50.43,13.6,0.07352941176470588,1.5,11.41503073567321,0.0005632167999999999
231.87,577.03,24167.0,4.1378e-05,1.2063,3.5939,134.4,24.376,45.739,629.21,-0.012977,59.483,0.081041,supercritical,O2,C7782447,oxygen,154.58,50.43,13.6,0.07352941176470588,1.5,11.442197104897877,0.0005627408
231.87,578.39,24188.0,4.1344e-05,1.2035,3.5948,134.38,24.379,45.722,630.0,-0.013125,59.573,0.08115,supercritical,O2,C7782447,oxygen,154.58,50.43,13.6,0.07352941176470588,1.5,11.469165179456672,0.0005622784000000001
231.87,579.76,24208.0,4.1309e-05,1.2006,3.5956,134.36,24.382,45.705,630.79,-0.013272,59.663,0.081259,supercritical,O2,C7782447,oxygen,154.58,50.43,13.6,0.07352941176470588,1.5,11.49633154868134,0.0005618023999999999
231.87,581.12,24228.0,4.1275e-05,1.1978,3.5964,134.34,24.386,45.688,631.58,-0.013419,59.752,0.081368,supercritical,O2,C7782447,oxygen,154.58,50.43,13.6,0.07352941176470588,1.5,11.523299623240135,0.00056134
231.87,582.49,24248.0,4.1241e-05,1.195,3.5973,134.32,24.389,45.671,632.37,-0.013564,59.842,0.081476,supercritical,O2,C7782447,oxygen,154.58,50.43,13.6,0.07352941176470588,1.5,11.550465992464803,0.0005608776
231.87,583.86,24268.0,4.1207e-05,1.1922,3.5981,134.3,24.392,45.654,633.15,-0.013709,59.932,0.081585,supercritical,O2,C7782447,oxygen,154.58,50.43,13.6,0.07352941176470588,1.5,11.57763236168947,0.0005604151999999999
231.87,585.22,24288.0,4.1173e-05,1.1894,3.599,134.28,24.396,45.637,633.94,-0.013853,60.021,0.081693,supercritical,O2,C7782447,oxygen,154.58,50.43,13.6,0.07352941176470588,1.5,11.604600436248266,0.0005599528
231.87,586.59,24307.0,4.114e-05,1.1866,3.5998,134.26,24.399,45.621,634.72,-0.013996,60.111,0.081802,supercritical,O2,C7782447,oxygen,154.58,50.43,13.6,0.07352941176470588,1.5,11.631766805472934,0.0005595040000000001
231.87,587.95,24327.0,4.1106e-05,1.1839,3.6007,134.24,24.402,45.604,635.51,-0.014138,60.2,0.08191,supercritical,O2,C7782447,oxygen,154.58,50.43,13.6,0.07352941176470588,1.5,11.658734880031728,0.0005590416
231.87,589.32,24347.0,4.1073e-05,1.1811,3.6016,134.22,24.406,45.587,636.29,-0.014279,60.29,0.082018,supercritical,O2,C7782447,oxygen,154.58,50.43,13.6,0.07352941176470588,1.5,11.685901249256396,0.0005585928
231.87,590.68,24367.0,4.104e-05,1.1783,3.6025,134.2,24.409,45.571,637.07,-0.01442,60.379,0.082126,supercritical,O2,C7782447,oxygen,154.58,50.43,13.6,0.07352941176470588,1.5,11.71286932381519,0.000558144
231.87,592.04,24386.0,4.1007e-05,1.1756,3.6034,134.18,24.412,45.555,637.85,-0.014559,60.468,0.082234,supercritical,O2,C7782447,oxygen,154.58,50.43,13.6,0.07352941176470588,1.5,11.739837398373982,0.0005576952
231.87,593.41,24406.0,4.0974e-05,1.1729,3.6043,134.16,24.415,45.538,638.63,-0.014698,60.557,0.082342,supercritical,O2,C7782447,oxygen,154.58,50.43,13.6,0.07352941176470588,1.5,11.76700376759865,0.0005572464
231.87,594.77,24425.0,4.0941e-05,1.1701,3.6052,134.14,24.419,45.522,639.4,-0.014836,60.647,0.082449,supercritical,O2,C7782447,oxygen,154.58,50.43,13.6,0.07352941176470588,1.5,11.793971842157445,0.0005567976
231.87,596.14,24445.0,4.0909e-05,1.1674,3.6061,134.12,24.422,45.506,640.18,-0.014973,60.736,0.082557,supercritical,O2,C7782447,oxygen,154.58,50.43,13.6,0.07352941176470588,1.5,11.821138211382113,0.0005563623999999999
231.87,597.5,24464.0,4.0876e-05,1.1647,3.6071,134.1,24.425,45.49,640.95,-0.015109,60.825,0.082664,supercritical,O2,C7782447,oxygen,154.58,50.43,13.6,0.07352941176470588,1.5,11.848106285940908,0.0005559136
231.87,598.87,24483.0,4.0844e-05,1.162,3.608,134.08,24.428,45.474,641.73,-0.015245,60.914,0.082772,supercritical,O2,C7782447,oxygen,154.58,50.43,13.6,0.07352941176470588,1.5,11.875272655165576,0.0005554783999999999
231.87,600.24,24503.0,4.0812e-05,1.1593,3.609,134.06,24.432,45.458,642.5,-0.01538,61.003,0.082879,supercritical,O2,C7782447,oxygen,154.58,50.43,13.6,0.07352941176470588,1.5,11.902439024390244,0.0005550432
231.87,601.6,24522.0,4.078e-05,1.1566,3.6099,134.04,24.435,45.442,643.27,-0.015514,61.092,0.082986,supercritical,O2,C7782447,oxygen,154.58,50.43,13.6,0.07352941176470588,1.5,11.929407098949039,0.0005546079999999999
231.87,602.97,24541.0,4.0748e-05,1.1539,3.6109,134.02,24.438,45.427,644.04,-0.015647,61.181,0.083094,supercritical,O2,C7782447,oxygen,154.58,50.43,13.6,0.07352941176470588,1.5,11.956573468173707,0.0005541728
231.87,604.33,24560.0,4.0717e-05,1.1512,3.6119,134.0,24.441,45.411,644.81,-0.015779,61.27,0.083201,supercritical,O2,C7782447,oxygen,154.58,50.43,13.6,0.07352941176470588,1.5,11.983541542732501,0.0005537512000000001
231.87,605.7,24579.0,4.0685e-05,1.1486,3.6128,133.98,24.445,45.395,645.57,-0.015911,61.358,0.083308,supercritical,O2,C7782447,oxygen,154.58,50.43,13.6,0.07352941176470588,1.5,12.01070791195717,0.000553316
231.87,607.06,24598.0,4.0654e-05,1.1459,3.6138,133.96,24.448,45.38,646.34,-0.016042,61.447,0.083414,supercritical,O2,C7782447,oxygen,154.58,50.43,13.6,0.07352941176470588,1.5,12.037675986515962,0.0005528944
231.87,608.42,24617.0,4.0622e-05,1.1433,3.6148,133.94,24.451,45.364,647.1,-0.016172,61.536,0.083521,supercritical,O2,C7782447,oxygen,154.58,50.43,13.6,0.07352941176470588,1.5,12.064644061074757,0.0005524592
231.87,609.79,24636.0,4.0591e-05,1.1406,3.6158,133.92,24.454,45.349,647.87,-0.016301,61.624,0.083628,supercritical,O2,C7782447,oxygen,154.58,50.43,13.6,0.07352941176470588,1.5,12.091810430299425,0.0005520376
231.87,611.15,24655.0,4.056e-05,1.138,3.6169,133.9,24.458,45.334,648.63,-0.01643,61.713,0.083735,supercritical,O2,C7782447,oxygen,154.58,50.43,13.6,0.07352941176470588,1.5,12.118778504858218,0.000551616
231.87,612.52,24673.0,4.053e-05,1.1354,3.6179,133.88,24.461,45.318,649.39,-0.016558,61.802,0.083841,supercritical,O2,C7782447,oxygen,154.58,50.43,13.6,0.07352941176470588,1.5,12.145944874082886,0.000551208
231.87,613.88,24692.0,4.0499e-05,1.1327,3.6189,133.86,24.464,45.303,650.15,-0.016685,61.89,0.083947,supercritical,O2,C7782447,oxygen,154.58,50.43,13.6,0.07352941176470588,1.5,12.172912948641681,0.0005507864
231.87,615.25,24711.0,4.0468e-05,1.1301,3.6199,133.84,24.467,45.288,650.91,-0.016811,61.978,0.084054,supercritical,O2,C7782447,oxygen,154.58,50.43,13.6,0.07352941176470588,1.5,12.200079317866349,0.0005503648
231.87,616.62,24729.0,4.0438e-05,1.1275,3.621,133.82,24.47,45.273,651.67,-0.016937,62.067,0.08416,supercritical,O2,C7782447,oxygen,154.58,50.43,13.6,0.07352941176470588,1.5,12.227245687091017,0.0005499568
231.87,617.98,24748.0,4.0407e-05,1.1249,3.622,133.8,24.474,45.258,652.42,-0.017062,62.155,0.084266,supercritical,O2,C7782447,oxygen,154.58,50.43,13.6,0.07352941176470588,1.5,12.254213761649812,0.0005495352
231.87,619.35,24766.0,4.0377e-05,1.1223,3.6231,133.78,24.477,45.243,653.18,-0.017186,62.244,0.084372,supercritical,O2,C7782447,oxygen,154.58,50.43,13.6,0.07352941176470588,1.5,12.28138013087448,0.0005491272
231.87,620.71,24785.0,4.0347e-05,1.1198,3.6242,133.76,24.48,45.228,653.93,-0.01731,62.332,0.084478,supercritical,O2,C7782447,oxygen,154.58,50.43,13.6,0.07352941176470588,1.5,12.308348205433274,0.0005487192
231.87,622.08,24803.0,4.0317e-05,1.1172,3.6252,133.74,24.483,45.213,654.68,-0.017433,62.42,0.084584,supercritical,O2,C7782447,oxygen,154.58,50.43,13.6,0.07352941176470588,1.5,12.335514574657942,0.0005483112
231.87,623.44,24822.0,4.0287e-05,1.1146,3.6263,133.72,24.486,45.199,655.44,-0.017555,62.508,0.08469,supercritical,O2,C7782447,oxygen,154.58,50.43,13.6,0.07352941176470588,1.5,12.362482649216737,0.0005479032
231.87,624.8,24840.0,4.0258e-05,1.1121,3.6274,133.71,24.49,45.184,656.19,-0.017677,62.596,0.084795,supercritical,O2,C7782447,oxygen,154.58,50.43,13.6,0.07352941176470588,1.5,12.38945072377553,0.0005475088
231.87,626.17,24858.0,4.0228e-05,1.1095,3.6285,133.69,24.493,45.17,656.94,-0.017797,62.684,0.084901,supercritical,O2,C7782447,oxygen,154.58,50.43,13.6,0.07352941176470588,1.5,12.416617093000198,0.0005471008
231.87,627.53,24876.0,4.0199e-05,1.107,3.6296,133.67,24.496,45.155,657.68,-0.017918,62.772,0.085006,supercritical,O2,C7782447,oxygen,154.58,50.43,13.6,0.07352941176470588,1.5,12.443585167558993,0.0005467064
231.87,628.9,24895.0,4.0169e-05,1.1044,3.6307,133.65,24.499,45.141,658.43,-0.018037,62.86,0.085112,supercritical,O2,C7782447,oxygen,154.58,50.43,13.6,0.07352941176470588,1.5,12.470751536783661,0.0005462984
231.87,630.26,24913.0,4.014e-05,1.1019,3.6318,133.63,24.502,45.126,659.18,-0.018156,62.948,0.085217,supercritical,O2,C7782447,oxygen,154.58,50.43,13.6,0.07352941176470588,1.5,12.497719611342454,0.0005459039999999999
231.87,631.63,24931.0,4.0111e-05,1.0994,3.6329,133.61,24.505,45.112,659.92,-0.018274,63.036,0.085322,supercritical,O2,C7782447,oxygen,154.58,50.43,13.6,0.07352941176470588,1.5,12.524885980567122,0.0005455096
231.87,633.0,24949.0,4.0082e-05,1.0969,3.6341,133.59,24.508,45.098,660.67,-0.018392,63.124,0.085428,supercritical,O2,C7782447,oxygen,154.58,50.43,13.6,0.07352941176470588,1.5,12.55205234979179,0.0005451152
231.87,634.36,24967.0,4.0053e-05,1.0944,3.6352,133.57,24.512,45.083,661.41,-0.018509,63.212,0.085533,supercritical,O2,C7782447,oxygen,154.58,50.43,13.6,0.07352941176470588,1.5,12.579020424350585,0.0005447207999999999
231.87,635.73,24985.0,4.0025e-05,1.0919,3.6363,133.56,24.515,45.069,662.15,-0.018625,63.3,0.085638,supercritical,O2,C7782447,oxygen,154.58,50.43,13.6,0.07352941176470588,1.5,12.606186793575253,0.0005443399999999999
231.87,637.09,25002.0,3.9996e-05,1.0894,3.6375,133.54,24.518,45.055,662.89,-0.018741,63.387,0.085742,supercritical,O2,C7782447,oxygen,154.58,50.43,13.6,0.07352941176470588,1.5,12.633154868134048,0.0005439456
231.87,638.46,25020.0,3.9968e-05,1.0869,3.6386,133.52,24.521,45.041,663.63,-0.018856,63.475,0.085847,supercritical,O2,C7782447,oxygen,154.58,50.43,13.6,0.07352941176470588,1.5,12.660321237358716,0.0005435648
231.87,639.82,25038.0,3.9939e-05,1.0844,3.6398,133.5,24.524,45.027,664.37,-0.01897,63.563,0.085952,supercritical,O2,C7782447,oxygen,154.58,50.43,13.6,0.07352941176470588,1.5,12.68728931191751,0.0005431704
231.87,641.18,25056.0,3.9911e-05,1.0819,3.641,133.48,24.527,45.013,665.1,-0.019084,63.65,0.086057,supercritical,O2,C7782447,oxygen,154.58,50.43,13.6,0.07352941176470588,1.5,12.714257386476303,0.0005427896
231.87,642.55,25073.0,3.9883e-05,1.0795,3.6421,133.46,24.53,45.0,665.84,-0.019197,63.738,0.086161,supercritical,O2,C7782447,oxygen,154.58,50.43,13.6,0.07352941176470588,1.5,12.741423755700971,0.0005424087999999999
231.87,643.91,25091.0,3.9855e-05,1.077,3.6433,133.44,24.534,44.986,666.58,-0.019309,63.825,0.086265,supercritical,O2,C7782447,oxygen,154.58,50.43,13.6,0.07352941176470588,1.5,12.768391830259766,0.000542028
231.87,645.28,25109.0,3.9827e-05,1.0746,3.6445,133.43,24.537,44.972,667.31,-0.019421,63.913,0.08637,supercritical,O2,C7782447,oxygen,154.58,50.43,13.6,0.07352941176470588,1.5,12.795558199484434,0.0005416472
231.87,646.64,25126.0,3.9799e-05,1.0721,3.6457,133.41,24.54,44.958,668.04,-0.019532,64.0,0.086474,supercritical,O2,C7782447,oxygen,154.58,50.43,13.6,0.07352941176470588,1.5,12.822526274043229,0.0005412664