Temperature (K),Pressure (bar),Density (mol/m3),Volume (m3/mol),Internal Energy (kJ/mol),Enthalpy (kJ/mol),Entropy (J/mol*K),Cv (J/mol*K),Cp (J/mol*K),Sound Spd. (m/s),Joule-Thomson (K/bar),Viscosity (uPa*s),Therm. Cond. (W/m*K),Phase,substance,substance_id,substance_name,Tc,Pc,rhoc,Vmc,Tr,Pr,Vmr
316.81,305.81,11417.0,8.7588e-05,2.3689,5.0474,104.21,13.855,31.05,425.28,0.084604,36.055,0.033976,supercritical,Ar,C7440371,argon,150.86,48.9805,13.41,0.07457121551081282,2.1,6.2435050683435245,0.0011745550800000002
316.81,307.44,11468.0,8.7203e-05,2.3622,5.0432,104.15,13.859,31.07,426.04,0.083743,36.143,0.034069,supercritical,Ar,C7440371,argon,150.86,48.9805,13.41,0.07457121551081282,2.1,6.276783617970417,0.0011693922300000002
316.81,309.07,11518.0,8.6822e-05,2.3556,5.039,104.09,13.864,31.09,426.8,0.082887,36.231,0.034161,supercritical,Ar,C7440371,argon,150.86,48.9805,13.41,0.07457121551081282,2.1,6.310062167597309,0.0011642830200000003
316.81,310.7,11568.0,8.6445e-05,2.3489,5.0348,104.04,13.869,31.109,427.57,0.082037,36.319,0.034254,supercritical,Ar,C7440371,argon,150.86,48.9805,13.41,0.07457121551081282,2.1,6.343340717224201,0.0011592274500000002
316.81,312.33,11618.0,8.6073e-05,2.3423,5.0306,103.98,13.873,31.128,428.33,0.081193,36.408,0.034347,supercritical,Ar,C7440371,argon,150.86,48.9805,13.41,0.07457121551081282,2.1,6.376619266851094,0.0011542389300000001
316.81,313.96,11668.0,8.5706e-05,2.3357,5.0265,103.92,13.878,31.147,429.1,0.080354,36.496,0.034439,supercritical,Ar,C7440371,argon,150.86,48.9805,13.41,0.07457121551081282,2.1,6.409897816477986,0.00114931746
316.81,315.59,11717.0,8.5343e-05,2.3292,5.0225,103.86,13.882,31.165,429.87,0.07952,36.584,0.034532,supercritical,Ar,C7440371,argon,150.86,48.9805,13.41,0.07457121551081282,2.1,6.443176366104878,0.0011444496300000002
316.81,317.22,11767.0,8.4984e-05,2.3226,5.0185,103.81,13.887,31.183,430.64,0.078691,36.673,0.034625,supercritical,Ar,C7440371,argon,150.86,48.9805,13.41,0.07457121551081282,2.1,6.476454915731772,0.0011396354400000001
316.81,318.85,11816.0,8.4629e-05,2.3161,5.0145,103.75,13.892,31.201,431.41,0.077868,36.762,0.034717,supercritical,Ar,C7440371,argon,150.86,48.9805,13.41,0.07457121551081282,2.1,6.509733465358663,0.0011348748900000003
316.81,320.48,11865.0,8.4279e-05,2.3096,5.0105,103.7,13.896,31.218,432.18,0.07705,36.851,0.03481,supercritical,Ar,C7440371,argon,150.86,48.9805,13.41,0.07457121551081282,2.1,6.543012014985556,0.00113018139
316.81,322.11,11914.0,8.3932e-05,2.3031,5.0066,103.64,13.901,31.235,432.95,0.076237,36.94,0.034903,supercritical,Ar,C7440371,argon,150.86,48.9805,13.41,0.07457121551081282,2.1,6.5762905646124485,0.00112552812
316.81,323.74,11963.0,8.3589e-05,2.2967,5.0028,103.58,13.905,31.252,433.72,0.07543,37.029,0.034996,supercritical,Ar,C7440371,argon,150.86,48.9805,13.41,0.07457121551081282,2.1,6.60956911423934,0.0011209284900000002
316.81,325.37,12012.0,8.3251e-05,2.2902,4.999,103.53,13.91,31.268,434.5,0.074628,37.118,0.035089,supercritical,Ar,C7440371,argon,150.86,48.9805,13.41,0.07457121551081282,2.1,6.642847663866233,0.0011163959100000001
316.81,327.0,12060.0,8.2916e-05,2.2838,4.9952,103.48,13.914,31.284,435.27,0.073831,37.207,0.035181,supercritical,Ar,C7440371,argon,150.86,48.9805,13.41,0.07457121551081282,2.1,6.6761262134931245,0.0011119035600000002
316.81,328.63,12109.0,8.2585e-05,2.2774,4.9914,103.42,13.919,31.3,436.05,0.073039,37.296,0.035274,supercritical,Ar,C7440371,argon,150.86,48.9805,13.41,0.07457121551081282,2.1,6.709404763120017,0.0011074648500000001
316.81,330.26,12157.0,8.2258e-05,2.2711,4.9877,103.37,13.923,31.316,436.82,0.072252,37.386,0.035367,supercritical,Ar,C7440371,argon,150.86,48.9805,13.41,0.07457121551081282,2.1,6.74268331274691,0.00110307978
316.81,331.89,12205.0,8.1934e-05,2.2647,4.9841,103.31,13.928,31.331,437.6,0.07147,37.475,0.03546,supercritical,Ar,C7440371,argon,150.86,48.9805,13.41,0.07457121551081282,2.1,6.775961862373801,0.0010987349400000002
316.81,333.52,12253.0,8.1614e-05,2.2584,4.9804,103.26,13.932,31.346,438.38,0.070693,37.565,0.035553,supercritical,Ar,C7440371,argon,150.86,48.9805,13.41,0.07457121551081282,2.1,6.809240412000694,0.0010944437400000001
316.81,335.15,12300.0,8.1298e-05,2.2521,4.9768,103.21,13.937,31.36,439.16,0.069921,37.655,0.035645,supercritical,Ar,C7440371,argon,150.86,48.9805,13.41,0.07457121551081282,2.1,6.8425189616275865,0.0010902061800000002
316.81,336.78,12348.0,8.0985e-05,2.2459,4.9733,103.15,13.941,31.375,439.94,0.069155,37.745,0.035738,supercritical,Ar,C7440371,argon,150.86,48.9805,13.41,0.07457121551081282,2.1,6.875797511254478,0.0010860088500000001
316.81,338.41,12395.0,8.0675e-05,2.2396,4.9698,103.1,13.946,31.389,440.72,0.068393,37.834,0.035831,supercritical,Ar,C7440371,argon,150.86,48.9805,13.41,0.07457121551081282,2.1,6.909076060881372,0.00108185175
316.81,340.04,12443.0,8.0369e-05,2.2334,4.9663,103.05,13.95,31.402,441.5,0.067636,37.924,0.035924,supercritical,Ar,C7440371,argon,150.86,48.9805,13.41,0.07457121551081282,2.1,6.942354610508264,0.00107774829
316.81,341.67,12490.0,8.0066e-05,2.2272,4.9628,103.0,13.954,31.416,442.28,0.066884,38.014,0.036017,supercritical,Ar,C7440371,argon,150.86,48.9805,13.41,0.07457121551081282,2.1,6.975633160135156,0.0010736850600000002
316.81,343.3,12537.0,7.9767e-05,2.221,4.9594,102.94,13.959,31.429,443.06,0.066137,38.105,0.03611,supercritical,Ar,C7440371,argon,150.86,48.9805,13.41,0.07457121551081282,2.1,7.008911709762049,0.00106967547
316.81,344.93,12583.0,7.9471e-05,2.2149,4.9561,102.89,13.963,31.442,443.84,0.065395,38.195,0.036202,supercritical,Ar,C7440371,argon,150.86,48.9805,13.41,0.07457121551081282,2.1,7.042190259388941,0.00106570611
316.81,346.56,12630.0,7.9178e-05,2.2087,4.9527,102.84,13.967,31.454,444.63,0.064658,38.285,0.036295,supercritical,Ar,C7440371,argon,150.86,48.9805,13.41,0.07457121551081282,2.1,7.075468809015833,0.0010617769800000002
316.81,348.19,12676.0,7.8888e-05,2.2026,4.9494,102.79,13.972,31.466,445.41,0.063926,38.375,0.036388,supercritical,Ar,C7440371,argon,150.86,48.9805,13.41,0.07457121551081282,2.1,7.1087473586427254,0.00105788808
316.81,349.82,12722.0,7.8601e-05,2.1965,4.9462,102.74,13.976,31.478,446.2,0.063198,38.466,0.036481,supercritical,Ar,C7440371,argon,150.86,48.9805,13.41,0.07457121551081282,2.1,7.142025908269617,0.0010540394100000002
316.81,351.45,12769.0,7.8318e-05,2.1905,4.9429,102.69,13.98,31.49,446.98,0.062475,38.556,0.036573,supercritical,Ar,C7440371,argon,150.86,48.9805,13.41,0.07457121551081282,2.1,7.17530445789651,0.00105024438
316.81,353.08,12814.0,7.8037e-05,2.1844,4.9398,102.64,13.985,31.502,447.77,0.061757,38.647,0.036666,supercritical,Ar,C7440371,argon,150.86,48.9805,13.41,0.07457121551081282,2.1,7.208583007523402,0.0010464761700000001
316.81,354.71,12860.0,7.7759e-05,2.1784,4.9366,102.59,13.989,31.513,448.55,0.061043,38.737,0.036759,supercritical,Ar,C7440371,argon,150.86,48.9805,13.41,0.07457121551081282,2.1,7.241861557150294,0.0010427481900000001
316.81,356.34,12906.0,7.7485e-05,2.1724,4.9335,102.54,13.993,31.524,449.34,0.060335,38.828,0.036852,supercritical,Ar,C7440371,argon,150.86,48.9805,13.41,0.07457121551081282,2.1,7.275140106777187,0.00103907385
316.81,357.97,12951.0,7.7213e-05,2.1664,4.9304,102.49,13.998,31.535,450.13,0.05963,38.918,0.036944,supercritical,Ar,C7440371,argon,150.86,48.9805,13.41,0.07457121551081282,2.1,7.30841865640408,0.00103542633
316.81,359.6,12997.0,7.6944e-05,2.1605,4.9274,102.44,14.002,31.545,450.91,0.058931,39.009,0.037037,supercritical,Ar,C7440371,argon,150.86,48.9805,13.41,0.07457121551081282,2.1,7.341697206030972,0.00103181904
316.81,361.23,13042.0,7.6677e-05,2.1545,4.9243,102.39,14.006,31.555,451.7,0.058236,39.1,0.03713,supercritical,Ar,C7440371,argon,150.86,48.9805,13.41,0.07457121551081282,2.1,7.374975755657864,0.00102823857
316.81,362.86,13087.0,7.6414e-05,2.1486,4.9214,102.34,14.01,31.565,452.49,0.057546,39.19,0.037222,supercritical,Ar,C7440371,argon,150.86,48.9805,13.41,0.07457121551081282,2.1,7.408254305284757,0.00102471174
316.81,364.49,13131.0,7.6153e-05,2.1427,4.9184,102.29,14.015,31.575,453.28,0.05686,39.281,0.037315,supercritical,Ar,C7440371,argon,150.86,48.9805,13.41,0.07457121551081282,2.1,7.441532854911649,0.00102121173
316.81,366.12,13176.0,7.5895e-05,2.1368,4.9155,102.24,14.019,31.585,454.07,0.056178,39.372,0.037407,supercritical,Ar,C7440371,argon,150.86,48.9805,13.41,0.07457121551081282,2.1,7.474811404538541,0.0010177519500000002
316.81,367.75,13221.0,7.5639e-05,2.131,4.9126,102.2,14.023,31.594,454.86,0.055501,39.463,0.0375,supercritical,Ar,C7440371,argon,150.86,48.9805,13.41,0.07457121551081282,2.1,7.508089954165433,0.0010143189900000001
316.81,369.38,13265.0,7.5386e-05,2.1252,4.9098,102.15,14.027,31.603,455.65,0.054829,39.554,0.037592,supercritical,Ar,C7440371,argon,150.86,48.9805,13.41,0.07457121551081282,2.1,7.5413685037923255,0.0010109262600000001
316.81,371.01,13309.0,7.5136e-05,2.1194,4.907,102.1,14.031,31.612,456.44,0.054161,39.645,0.037685,supercritical,Ar,C7440371,argon,150.86,48.9805,13.41,0.07457121551081282,2.1,7.574647053419218,0.00100757376
316.81,372.64,13353.0,7.4888e-05,2.1136,4.9042,102.05,14.036,31.62,457.23,0.053497,39.736,0.037777,supercritical,Ar,C7440371,argon,150.86,48.9805,13.41,0.07457121551081282,2.1,7.60792560304611,0.0010042480800000002
316.81,374.27,13397.0,7.4643e-05,2.1078,4.9015,102.01,14.04,31.629,458.02,0.052838,39.827,0.03787,supercritical,Ar,C7440371,argon,150.86,48.9805,13.41,0.07457121551081282,2.1,7.641204152673002,0.00100096263
316.81,375.9,13441.0,7.44e-05,2.1021,4.8988,101.96,14.044,31.637,458.81,0.052183,39.918,0.037962,supercritical,Ar,C7440371,argon,150.86,48.9805,13.41,0.07457121551081282,2.1,7.674482702299895,0.000997704
316.81,377.53,13484.0,7.4159e-05,2.0963,4.8961,101.91,14.048,31.645,459.6,0.051532,40.009,0.038054,supercritical,Ar,C7440371,argon,150.86,48.9805,13.41,0.07457121551081282,2.1,7.707761251926787,0.0009944721900000003
316.81,379.16,13528.0,7.3921e-05,2.0906,4.8934,101.87,14.052,31.652,460.4,0.050886,40.1,0.038146,supercritical,Ar,C7440371,argon,150.86,48.9805,13.41,0.07457121551081282,2.1,7.74103980155368,0.0009912806100000001
316.81,380.79,13571.0,7.3686e-05,2.085,4.8908,101.82,14.056,31.66,461.19,0.050244,40.191,0.038239,supercritical,Ar,C7440371,argon,150.86,48.9805,13.41,0.07457121551081282,2.1,7.774318351180573,0.0009881292600000002
316.81,382.42,13614.0,7.3452e-05,2.0793,4.8883,101.77,14.06,31.667,461.98,0.049606,40.282,0.038331,supercritical,Ar,C7440371,argon,150.86,48.9805,13.41,0.07457121551081282,2.1,7.807596900807464,0.0009849913200000002
316.81,384.05,13657.0,7.3221e-05,2.0737,4.8857,101.73,14.065,31.674,462.77,0.048972,40.373,0.038423,supercritical,Ar,C7440371,argon,150.86,48.9805,13.41,0.07457121551081282,2.1,7.840875450434357,0.0009818936100000001
316.81,385.68,13700.0,7.2992e-05,2.068,4.8832,101.68,14.069,31.681,463.56,0.048342,40.464,0.038515,supercritical,Ar,C7440371,argon,150.86,48.9805,13.41,0.07457121551081282,2.1,7.8741540000612495,0.00097882272
316.81,387.31,13743.0,7.2765e-05,2.0624,4.8807,101.64,14.073,31.688,464.36,0.047717,40.555,0.038607,supercritical,Ar,C7440371,argon,150.86,48.9805,13.41,0.07457121551081282,2.1,7.907432549688141,0.0009757786500000001
316.81,388.94,13785.0,7.2541e-05,2.0569,4.8783,101.59,14.077,31.694,465.15,0.047095,40.646,0.038699,supercritical,Ar,C7440371,argon,150.86,48.9805,13.41,0.07457121551081282,2.1,7.940711099315034,0.00097277481
316.81,390.57,13828.0,7.2318e-05,2.0513,4.8759,101.55,14.081,31.7,465.94,0.046478,40.737,0.038791,supercritical,Ar,C7440371,argon,150.86,48.9805,13.41,0.07457121551081282,2.1,7.9739896489419255,0.00096978438
316.81,392.2,13870.0,7.2098e-05,2.0458,4.8735,101.5,14.085,31.706,466.74,0.045865,40.828,0.038883,supercritical,Ar,C7440371,argon,150.86,48.9805,13.41,0.07457121551081282,2.1,8.007268198568818,0.0009668341800000001
316.81,393.83,13912.0,7.188e-05,2.0403,4.8711,101.46,14.089,31.712,467.53,0.045256,40.919,0.038974,supercritical,Ar,C7440371,argon,150.86,48.9805,13.41,0.07457121551081282,2.1,8.04054674819571,0.0009639108000000001
316.81,395.46,13954.0,7.1664e-05,2.0348,4.8688,101.41,14.093,31.718,468.32,0.044651,41.01,0.039066,supercritical,Ar,C7440371,argon,150.86,48.9805,13.41,0.07457121551081282,2.1,8.073825297822603,0.0009610142400000001
316.81,397.09,13996.0,7.145e-05,2.0293,4.8665,101.37,14.097,31.724,469.11,0.044049,41.101,0.039158,supercritical,Ar,C7440371,argon,150.86,48.9805,13.41,0.07457121551081282,2.1,8.107103847449494,0.0009581445000000001
316.81,398.72,14037.0,7.1238e-05,2.0238,4.8642,101.33,14.101,31.729,469.91,0.043452,41.192,0.039249,supercritical,Ar,C7440371,argon,150.86,48.9805,13.41,0.07457121551081282,2.1,8.140382397076388,0.00095530158
316.81,400.35,14079.0,7.1028e-05,2.0184,4.862,101.28,14.105,31.734,470.7,0.042859,41.283,0.039341,supercritical,Ar,C7440371,argon,150.86,48.9805,13.41,0.07457121551081282,2.1,8.173660946703281,0.00095248548
316.81,401.98,14120.0,7.082e-05,2.013,4.8598,101.24,14.109,31.739,471.49,0.042269,41.374,0.039432,supercritical,Ar,C7440371,argon,150.86,48.9805,13.41,0.07457121551081282,2.1,8.206939496330172,0.0009496962000000002
316.81,403.61,14162.0,7.0614e-05,2.0076,4.8576,101.2,14.113,31.744,472.29,0.041684,41.465,0.039524,supercritical,Ar,C7440371,argon,150.86,48.9805,13.41,0.07457121551081282,2.1,8.240218045957064,0.00094693374
316.81,405.24,14203.0,7.041e-05,2.0022,4.8555,101.15,14.117,31.748,473.08,0.041102,41.555,0.039615,supercritical,Ar,C7440371,argon,150.86,48.9805,13.41,0.07457121551081282,2.1,8.273496595583957,0.0009441981000000001
316.81,406.87,14244.0,7.0207e-05,1.9969,4.8534,101.11,14.121,31.753,473.87,0.040524,41.646,0.039706,supercritical,Ar,C7440371,argon,150.86,48.9805,13.41,0.07457121551081282,2.1,8.30677514521085,0.0009414758700000001
316.81,408.5,14284.0,7.0007e-05,1.9915,4.8513,101.07,14.125,31.757,474.67,0.03995,41.737,0.039797,supercritical,Ar,C7440371,argon,150.86,48.9805,13.41,0.07457121551081282,2.1,8.340053694837742,0.00093879387
316.81,410.13,14325.0,6.9808e-05,1.9862,4.8492,101.03,14.129,31.761,475.46,0.039379,41.828,0.039888,supercritical,Ar,C7440371,argon,150.86,48.9805,13.41,0.07457121551081282,2.1,8.373332244464635,0.0009361252800000002
316.81,411.76,14365.0,6.9611e-05,1.9809,4.8472,100.98,14.133,31.765,476.25,0.038812,41.919,0.039979,supercritical,Ar,C7440371,argon,150.86,48.9805,13.41,0.07457121551081282,2.1,8.406610794091526,0.0009334835100000001
316.81,413.39,14406.0,6.9416e-05,1.9756,4.8452,100.94,14.137,31.769,477.05,0.038249,42.009,0.04007,supercritical,Ar,C7440371,argon,150.86,48.9805,13.41,0.07457121551081282,2.1,8.439889343718418,0.0009308685600000001
316.81,415.02,14446.0,6.9223e-05,1.9704,4.8433,100.9,14.141,31.772,477.84,0.03769,42.1,0.040161,supercritical,Ar,C7440371,argon,150.86,48.9805,13.41,0.07457121551081282,2.1,8.47316789334531,0.0009282804300000001
316.81,416.65,14486.0,6.9032e-05,1.9651,4.8413,100.86,14.145,31.776,478.63,0.037134,42.191,0.040252,supercritical,Ar,C7440371,argon,150.86,48.9805,13.41,0.07457121551081282,2.1,8.506446442972203,0.00092571912
316.81,418.28,14526.0,6.8842e-05,1.9599,4.8394,100.82,14.149,31.779,479.42,0.036582,42.281,0.040343,supercritical,Ar,C7440371,argon,150.86,48.9805,13.41,0.07457121551081282,2.1,8.539724992599096,0.0009231712200000002
316.81,419.91,14566.0,6.8654e-05,1.9547,4.8375,100.77,14.153,31.782,480.22,0.036034,42.372,0.040433,supercritical,Ar,C7440371,argon,150.86,48.9805,13.41,0.07457121551081282,2.1,8.573003542225988,0.00092065014
316.81,421.54,14606.0,6.8467e-05,1.9495,4.8357,100.73,14.157,31.785,481.01,0.035489,42.462,0.040524,supercritical,Ar,C7440371,argon,150.86,48.9805,13.41,0.07457121551081282,2.1,8.606282091852881,0.00091814247
316.81,423.17,14645.0,6.8282e-05,1.9443,4.8338,100.69,14.161,31.788,481.8,0.034948,42.553,0.040614,supercritical,Ar,C7440371,argon,150.86,48.9805,13.41,0.07457121551081282,2.1,8.639560641479774,0.00091566162
316.81,424.8,14684.0,6.8099e-05,1.9392,4.8321,100.65,14.165,31.791,482.59,0.03441,42.643,0.040705,supercritical,Ar,C7440371,argon,150.86,48.9805,13.41,0.07457121551081282,2.1,8.672839191106664,0.0009132075900000001
316.81,426.43,14724.0,6.7918e-05,1.9341,4.8303,100.61,14.169,31.793,483.39,0.033876,42.734,0.040795,supercritical,Ar,C7440371,argon,150.86,48.9805,13.41,0.07457121551081282,2.1,8.706117740733557,0.00091078038
316.81,428.06,14763.0,6.7738e-05,1.929,4.8285,100.57,14.172,31.796,484.18,0.033345,42.824,0.040885,supercritical,Ar,C7440371,argon,150.86,48.9805,13.41,0.07457121551081282,2.1,8.73939629036045,0.00090836658
316.81,429.69,14802.0,6.7559e-05,1.9239,4.8268,100.53,14.176,31.798,484.97,0.032817,42.914,0.040975,supercritical,Ar,C7440371,argon,150.86,48.9805,13.41,0.07457121551081282,2.1,8.772674839987342,0.00090596619
316.81,431.32,14841.0,6.7382e-05,1.9188,4.8251,100.49,14.18,31.8,485.76,0.032293,43.005,0.041065,supercritical,Ar,C7440371,argon,150.86,48.9805,13.41,0.07457121551081282,2.1,8.805953389614235,0.0009035926200000001
316.81,432.95,14879.0,6.7207e-05,1.9137,4.8235,100.45,14.184,31.802,486.55,0.031773,43.095,0.041155,supercritical,Ar,C7440371,argon,150.86,48.9805,13.41,0.07457121551081282,2.1,8.839231939241126,0.0009012458700000001
316.81,434.58,14918.0,6.7033e-05,1.9087,4.8218,100.41,14.188,31.804,487.34,0.031256,43.185,0.041245,supercritical,Ar,C7440371,argon,150.86,48.9805,13.41,0.07457121551081282,2.1,8.872510488868018,0.00089891253
316.81,436.21,14956.0,6.6861e-05,1.9037,4.8202,100.37,14.192,31.806,488.13,0.030742,43.275,0.041335,supercritical,Ar,C7440371,argon,150.86,48.9805,13.41,0.07457121551081282,2.1,8.90578903849491,0.0008966060100000001
316.81,437.84,14995.0,6.669e-05,1.8987,4.8187,100.33,14.196,31.807,488.92,0.030231,43.365,0.041425,supercritical,Ar,C7440371,argon,150.86,48.9805,13.41,0.07457121551081282,2.1,8.939067588121803,0.0008943129000000001
316.81,439.47,15033.0,6.6521e-05,1.8937,4.8171,100.29,14.2,31.809,489.71,0.029724,43.455,0.041514,supercritical,Ar,C7440371,argon,150.86,48.9805,13.41,0.07457121551081282,2.1,8.972346137748696,0.00089204661
316.81,441.1,15071.0,6.6353e-05,1.8887,4.8156,100.25,14.203,31.81,490.5,0.02922,43.545,0.041604,supercritical,Ar,C7440371,argon,150.86,48.9805,13.41,0.07457121551081282,2.1,9.005624687375589,0.0008897937300000002
316.81,442.73,15109.0,6.6186e-05,1.8838,4.8141,100.22,14.207,31.812,491.29,0.02872,43.635,0.041693,supercritical,Ar,C7440371,argon,150.86,48.9805,13.41,0.07457121551081282,2.1,9.038903237002481,0.0008875542600000002
316.81,444.36,15147.0,6.6021e-05,1.8789,4.8126,100.18,14.211,31.813,492.08,0.028222,43.725,0.041782,supercritical,Ar,C7440371,argon,150.86,48.9805,13.41,0.07457121551081282,2.1,9.072181786629374,0.00088534161
316.81,445.99,15184.0,6.5858e-05,1.874,4.8111,100.14,14.215,31.814,492.87,0.027728,43.814,0.041872,supercritical,Ar,C7440371,argon,150.86,48.9805,13.41,0.07457121551081282,2.1,9.105460336256266,0.0008831557800000002
316.81,447.62,15222.0,6.5695e-05,1.8691,4.8097,100.1,14.219,31.814,493.66,0.027237,43.904,0.041961,supercritical,Ar,C7440371,argon,150.86,48.9805,13.41,0.07457121551081282,2.1,9.138738885883157,0.0008809699500000001
316.81,449.25,15259.0,6.5534e-05,1.8642,4.8083,100.06,14.223,31.815,494.44,0.026749,43.994,0.04205,supercritical,Ar,C7440371,argon,150.86,48.9805,13.41,0.07457121551081282,2.1,9.17201743551005,0.0008788109400000001
316.81,450.88,15296.0,6.5374e-05,1.8593,4.8069,100.02,14.226,31.816,495.23,0.026264,44.083,0.042138,supercritical,Ar,C7440371,argon,150.86,48.9805,13.41,0.07457121551081282,2.1,9.205295985136942,0.0008766653400000002
316.81,452.51,15334.0,6.5216e-05,1.8545,4.8056,99.986,14.23,31.816,496.02,0.025783,44.173,0.042227,supercritical,Ar,C7440371,argon,150.86,48.9805,13.41,0.07457121551081282,2.1,9.238574534763835,0.00087454656
316.81,454.14,15371.0,6.5059e-05,1.8497,4.8043,99.948,14.234,31.817,496.81,0.025304,44.262,0.042316,supercritical,Ar,C7440371,argon,150.86,48.9805,13.41,0.07457121551081282,2.1,9.271853084390727,0.0008724411900000001