Temperature (K),Pressure (bar),Density (mol/m3),Volume (m3/mol),Internal Energy (kJ/mol),Enthalpy (kJ/mol),Entropy (J/mol*K),Cv (J/mol*K),Cp (J/mol*K),Sound Spd. (m/s),Joule-Thomson (K/bar),Viscosity (uPa*s),Therm. Cond. (W/m*K),Phase,substance,substance_id,substance_name,Tc,Pc,rhoc,Vmc,Tr,Pr,Vmr
293.7,394.12,15381.0,6.5017e-05,3.887,6.4495,148.85,22.984,43.004,466.28,0.038934,37.497,0.053364,supercritical,O2,C7782447,oxygen,154.58,50.43,13.6,0.07352941176470588,1.9,7.81518937140591,0.0008842312
293.7,395.49,15417.0,6.4862e-05,3.882,6.4472,148.81,22.987,43.004,467.05,0.038502,37.569,0.053464,supercritical,O2,C7782447,oxygen,154.58,50.43,13.6,0.07352941176470588,1.9,7.842355740630577,0.0008821232
293.7,396.85,15454.0,6.4709e-05,3.877,6.445,148.78,22.99,43.004,467.81,0.038072,37.64,0.053564,supercritical,O2,C7782447,oxygen,154.58,50.43,13.6,0.07352941176470588,1.9,7.869323815189372,0.0008800424000000001
293.7,398.21,15490.0,6.4557e-05,3.872,6.4427,148.74,22.994,43.003,468.58,0.037645,37.711,0.053664,supercritical,O2,C7782447,oxygen,154.58,50.43,13.6,0.07352941176470588,1.9,7.8962918897481655,0.0008779752
293.7,399.58,15526.0,6.4406e-05,3.867,6.4406,148.7,22.997,43.003,469.34,0.037221,37.782,0.053763,supercritical,O2,C7782447,oxygen,154.58,50.43,13.6,0.07352941176470588,1.9,7.9234582589728335,0.0008759216000000001
293.7,400.94,15563.0,6.4257e-05,3.862,6.4384,148.66,23.0,43.002,470.11,0.036799,37.853,0.053863,supercritical,O2,C7782447,oxygen,154.58,50.43,13.6,0.07352941176470588,1.9,7.950426333531628,0.0008738952
293.7,402.31,15599.0,6.4108e-05,3.8571,6.4362,148.63,23.003,43.002,470.87,0.03638,37.924,0.053962,supercritical,O2,C7782447,oxygen,154.58,50.43,13.6,0.07352941176470588,1.9,7.977592702756296,0.0008718688
293.7,403.68,15635.0,6.3961e-05,3.8522,6.4341,148.59,23.007,43.001,471.63,0.035964,37.995,0.054061,supercritical,O2,C7782447,oxygen,154.58,50.43,13.6,0.07352941176470588,1.9,8.004759071980963,0.0008698696000000001
293.7,405.04,15670.0,6.3815e-05,3.8472,6.432,148.55,23.01,43.0,472.4,0.03555,38.066,0.05416,supercritical,O2,C7782447,oxygen,154.58,50.43,13.6,0.07352941176470588,1.9,8.031727146539758,0.000867884
293.7,406.4,15706.0,6.367e-05,3.8424,6.4299,148.52,23.013,42.999,473.16,0.035139,38.137,0.054259,supercritical,O2,C7782447,oxygen,154.58,50.43,13.6,0.07352941176470588,1.9,8.058695221098551,0.000865912
293.7,407.77,15742.0,6.3526e-05,3.8375,6.4279,148.48,23.016,42.998,473.93,0.034731,38.207,0.054358,supercritical,O2,C7782447,oxygen,154.58,50.43,13.6,0.07352941176470588,1.9,8.08586159032322,0.0008639536
293.7,409.13,15777.0,6.3384e-05,3.8326,6.4259,148.44,23.02,42.996,474.69,0.034325,38.278,0.054457,supercritical,O2,C7782447,oxygen,154.58,50.43,13.6,0.07352941176470588,1.9,8.112829664882014,0.0008620224
293.7,410.5,15812.0,6.3242e-05,3.8278,6.4239,148.41,23.023,42.995,475.45,0.033921,38.349,0.054555,supercritical,O2,C7782447,oxygen,154.58,50.43,13.6,0.07352941176470588,1.9,8.139996034106682,0.0008600912
293.7,411.87,15847.0,6.3102e-05,3.8229,6.4219,148.37,23.026,42.993,476.22,0.03352,38.419,0.054653,supercritical,O2,C7782447,oxygen,154.58,50.43,13.6,0.07352941176470588,1.9,8.16716240333135,0.0008581872
293.7,413.23,15882.0,6.2962e-05,3.8181,6.4199,148.34,23.029,42.992,476.98,0.033122,38.489,0.054752,supercritical,O2,C7782447,oxygen,154.58,50.43,13.6,0.07352941176470588,1.9,8.194130477890145,0.0008562832
293.7,414.6,15917.0,6.2824e-05,3.8133,6.418,148.3,23.032,42.99,477.74,0.032726,38.56,0.05485,supercritical,O2,C7782447,oxygen,154.58,50.43,13.6,0.07352941176470588,1.9,8.221296847114813,0.0008544063999999999
293.7,415.96,15952.0,6.2687e-05,3.8085,6.4161,148.26,23.036,42.988,478.51,0.032333,38.63,0.054948,supercritical,O2,C7782447,oxygen,154.58,50.43,13.6,0.07352941176470588,1.9,8.248264921673607,0.0008525432
293.7,417.32,15987.0,6.2551e-05,3.8038,6.4142,148.23,23.039,42.986,479.27,0.031942,38.7,0.055045,supercritical,O2,C7782447,oxygen,154.58,50.43,13.6,0.07352941176470588,1.9,8.2752329962324,0.0008506936
293.7,418.69,16022.0,6.2416e-05,3.799,6.4123,148.19,23.042,42.984,480.03,0.031553,38.77,0.055143,supercritical,O2,C7782447,oxygen,154.58,50.43,13.6,0.07352941176470588,1.9,8.302399365457068,0.0008488575999999998
293.7,420.06,16056.0,6.2282e-05,3.7943,6.4105,148.16,23.045,42.982,480.79,0.031167,38.84,0.055241,supercritical,O2,C7782447,oxygen,154.58,50.43,13.6,0.07352941176470588,1.9,8.329565734681736,0.0008470352
293.7,421.42,16090.0,6.2149e-05,3.7896,6.4087,148.12,23.048,42.98,481.56,0.030783,38.91,0.055338,supercritical,O2,C7782447,oxygen,154.58,50.43,13.6,0.07352941176470588,1.9,8.356533809240531,0.0008452264000000001
293.7,422.79,16125.0,6.2017e-05,3.7849,6.4069,148.09,23.051,42.977,482.32,0.030402,38.98,0.055435,supercritical,O2,C7782447,oxygen,154.58,50.43,13.6,0.07352941176470588,1.9,8.3837001784652,0.0008434311999999999
293.7,424.15,16159.0,6.1886e-05,3.7802,6.4051,148.05,23.055,42.975,483.08,0.030023,39.05,0.055533,supercritical,O2,C7782447,oxygen,154.58,50.43,13.6,0.07352941176470588,1.9,8.410668253023994,0.0008416496
293.7,425.51,16193.0,6.1756e-05,3.7755,6.4034,148.02,23.058,42.972,483.84,0.029646,39.12,0.05563,supercritical,O2,C7782447,oxygen,154.58,50.43,13.6,0.07352941176470588,1.9,8.437636327582787,0.0008398815999999999
293.7,426.88,16227.0,6.1627e-05,3.7709,6.4016,147.98,23.061,42.969,484.6,0.029272,39.189,0.055727,supercritical,O2,C7782447,oxygen,154.58,50.43,13.6,0.07352941176470588,1.9,8.464802696807455,0.0008381272
293.7,428.25,16260.0,6.1499e-05,3.7663,6.3999,147.95,23.064,42.966,485.36,0.0289,39.259,0.055823,supercritical,O2,C7782447,oxygen,154.58,50.43,13.6,0.07352941176470588,1.9,8.491969066032123,0.0008363864
293.7,429.61,16294.0,6.1372e-05,3.7616,6.3982,147.92,23.067,42.964,486.12,0.02853,39.329,0.05592,supercritical,O2,C7782447,oxygen,154.58,50.43,13.6,0.07352941176470588,1.9,8.518937140590918,0.0008346591999999999
293.7,430.98,16328.0,6.1246e-05,3.757,6.3966,147.88,23.07,42.961,486.88,0.028163,39.398,0.056017,supercritical,O2,C7782447,oxygen,154.58,50.43,13.6,0.07352941176470588,1.9,8.546103509815586,0.0008329456
293.7,432.34,16361.0,6.112e-05,3.7525,6.3949,147.85,23.073,42.957,487.64,0.027798,39.467,0.056113,supercritical,O2,C7782447,oxygen,154.58,50.43,13.6,0.07352941176470588,1.9,8.57307158437438,0.0008312319999999999
293.7,433.7,16395.0,6.0996e-05,3.7479,6.3933,147.81,23.076,42.954,488.4,0.027435,39.537,0.056209,supercritical,O2,C7782447,oxygen,154.58,50.43,13.6,0.07352941176470588,1.9,8.600039658933175,0.0008295455999999999
293.7,435.07,16428.0,6.0873e-05,3.7433,6.3917,147.78,23.079,42.951,489.16,0.027074,39.606,0.056306,supercritical,O2,C7782447,oxygen,154.58,50.43,13.6,0.07352941176470588,1.9,8.627206028157843,0.0008278728
293.7,436.44,16461.0,6.075e-05,3.7388,6.3901,147.75,23.083,42.948,489.92,0.026716,39.675,0.056402,supercritical,O2,C7782447,oxygen,154.58,50.43,13.6,0.07352941176470588,1.9,8.654372397382511,0.0008261999999999999
293.7,437.8,16494.0,6.0629e-05,3.7343,6.3886,147.71,23.086,42.944,490.68,0.02636,39.744,0.056498,supercritical,O2,C7782447,oxygen,154.58,50.43,13.6,0.07352941176470588,1.9,8.681340471941304,0.0008245543999999999
293.7,439.17,16527.0,6.0508e-05,3.7298,6.3871,147.68,23.089,42.941,491.44,0.026006,39.813,0.056593,supercritical,O2,C7782447,oxygen,154.58,50.43,13.6,0.07352941176470588,1.9,8.708506841165972,0.0008229088
293.7,440.53,16560.0,6.0388e-05,3.7253,6.3855,147.65,23.092,42.937,492.2,0.025654,39.882,0.056689,supercritical,O2,C7782447,oxygen,154.58,50.43,13.6,0.07352941176470588,1.9,8.735474915724767,0.0008212768
293.7,441.89,16592.0,6.0269e-05,3.7208,6.384,147.61,23.095,42.934,492.95,0.025304,39.951,0.056785,supercritical,O2,C7782447,oxygen,154.58,50.43,13.6,0.07352941176470588,1.9,8.762442990283562,0.0008196584
293.7,443.26,16625.0,6.0151e-05,3.7163,6.3826,147.58,23.098,42.93,493.71,0.024957,40.02,0.05688,supercritical,O2,C7782447,oxygen,154.58,50.43,13.6,0.07352941176470588,1.9,8.78960935950823,0.0008180536
293.7,444.62,16657.0,6.0034e-05,3.7119,6.3811,147.55,23.101,42.926,494.47,0.024611,40.089,0.056976,supercritical,O2,C7782447,oxygen,154.58,50.43,13.6,0.07352941176470588,1.9,8.816577434067023,0.0008164624
293.7,445.99,16690.0,5.9917e-05,3.7074,6.3797,147.51,23.104,42.922,495.23,0.024268,40.158,0.057071,supercritical,O2,C7782447,oxygen,154.58,50.43,13.6,0.07352941176470588,1.9,8.84374380329169,0.0008148712
293.7,447.36,16722.0,5.9802e-05,3.703,6.3783,147.48,23.107,42.918,495.98,0.023927,40.226,0.057166,supercritical,O2,C7782447,oxygen,154.58,50.43,13.6,0.07352941176470588,1.9,8.870910172516359,0.0008133071999999999
293.7,448.72,16754.0,5.9687e-05,3.6986,6.3769,147.45,23.11,42.914,496.74,0.023588,40.295,0.057261,supercritical,O2,C7782447,oxygen,154.58,50.43,13.6,0.07352941176470588,1.9,8.897878247075154,0.0008117431999999999
293.7,450.08,16786.0,5.9573e-05,3.6942,6.3755,147.42,23.113,42.91,497.49,0.023251,40.363,0.057356,supercritical,O2,C7782447,oxygen,154.58,50.43,13.6,0.07352941176470588,1.9,8.924846321633948,0.0008101928
293.7,451.45,16818.0,5.946e-05,3.6898,6.3742,147.38,23.116,42.906,498.25,0.022916,40.432,0.057451,supercritical,O2,C7782447,oxygen,154.58,50.43,13.6,0.07352941176470588,1.9,8.952012690858616,0.000808656
293.7,452.81,16850.0,5.9347e-05,3.6855,6.3728,147.35,23.119,42.901,499.0,0.022583,40.5,0.057545,supercritical,O2,C7782447,oxygen,154.58,50.43,13.6,0.07352941176470588,1.9,8.978980765417411,0.0008071192
293.7,454.18,16882.0,5.9236e-05,3.6811,6.3715,147.32,23.122,42.897,499.76,0.022252,40.569,0.05764,supercritical,O2,C7782447,oxygen,154.58,50.43,13.6,0.07352941176470588,1.9,9.00614713464208,0.0008056096
293.7,455.55,16913.0,5.9125e-05,3.6768,6.3702,147.29,23.125,42.893,500.51,0.021923,40.637,0.057734,supercritical,O2,C7782447,oxygen,154.58,50.43,13.6,0.07352941176470588,1.9,9.033313503866747,0.0008041
293.7,456.91,16945.0,5.9015e-05,3.6725,6.3689,147.26,23.128,42.888,501.27,0.021597,40.705,0.057829,supercritical,O2,C7782447,oxygen,154.58,50.43,13.6,0.07352941176470588,1.9,9.06028157842554,0.0008026040000000001
293.7,458.27,16976.0,5.8906e-05,3.6682,6.3677,147.22,23.131,42.884,502.02,0.021272,40.773,0.057923,supercritical,O2,C7782447,oxygen,154.58,50.43,13.6,0.07352941176470588,1.9,9.087249652984335,0.0008011216
293.7,459.64,17008.0,5.8797e-05,3.6639,6.3665,147.19,23.134,42.879,502.77,0.020949,40.841,0.058017,supercritical,O2,C7782447,oxygen,154.58,50.43,13.6,0.07352941176470588,1.9,9.114416022209003,0.0007996392
293.7,461.0,17039.0,5.8689e-05,3.6596,6.3652,147.16,23.137,42.875,503.52,0.020628,40.909,0.058111,supercritical,O2,C7782447,oxygen,154.58,50.43,13.6,0.07352941176470588,1.9,9.141384096767798,0.0007981704
293.7,462.37,17070.0,5.8582e-05,3.6554,6.364,147.13,23.14,42.87,504.28,0.020309,40.977,0.058205,supercritical,O2,C7782447,oxygen,154.58,50.43,13.6,0.07352941176470588,1.9,9.168550465992466,0.0007967152
293.7,463.74,17101.0,5.8476e-05,3.6511,6.3629,147.1,23.143,42.865,505.03,0.019992,41.045,0.058299,supercritical,O2,C7782447,oxygen,154.58,50.43,13.6,0.07352941176470588,1.9,9.195716835217134,0.0007952736
293.7,465.1,17132.0,5.8371e-05,3.6469,6.3617,147.07,23.146,42.86,505.78,0.019677,41.113,0.058393,supercritical,O2,C7782447,oxygen,154.58,50.43,13.6,0.07352941176470588,1.9,9.222684909775927,0.0007938455999999999
293.7,466.46,17163.0,5.8266e-05,3.6427,6.3606,147.04,23.149,42.855,506.53,0.019363,41.18,0.058486,supercritical,O2,C7782447,oxygen,154.58,50.43,13.6,0.07352941176470588,1.9,9.249652984334721,0.0007924176
293.7,467.83,17193.0,5.8162e-05,3.6385,6.3594,147.01,23.152,42.851,507.28,0.019052,41.248,0.05858,supercritical,O2,C7782447,oxygen,154.58,50.43,13.6,0.07352941176470588,1.9,9.27681935355939,0.0007910032
293.7,469.19,17224.0,5.8058e-05,3.6343,6.3583,146.98,23.155,42.846,508.03,0.018743,41.316,0.058673,supercritical,O2,C7782447,oxygen,154.58,50.43,13.6,0.07352941176470588,1.9,9.303787428118184,0.0007895888
293.7,470.56,17255.0,5.7955e-05,3.6301,6.3572,146.94,23.158,42.841,508.78,0.018435,41.383,0.058766,supercritical,O2,C7782447,oxygen,154.58,50.43,13.6,0.07352941176470588,1.9,9.330953797342852,0.000788188
293.7,471.93,17285.0,5.7853e-05,3.6259,6.3562,146.91,23.161,42.835,509.53,0.018129,41.451,0.05886,supercritical,O2,C7782447,oxygen,154.58,50.43,13.6,0.07352941176470588,1.9,9.35812016656752,0.0007868008
293.7,473.29,17315.0,5.7752e-05,3.6218,6.3551,146.88,23.164,42.83,510.28,0.017825,41.518,0.058953,supercritical,O2,C7782447,oxygen,154.58,50.43,13.6,0.07352941176470588,1.9,9.385088241126315,0.0007854272
293.7,474.65,17346.0,5.7651e-05,3.6176,6.3541,146.85,23.166,42.825,511.02,0.017523,41.586,0.059046,supercritical,O2,C7782447,oxygen,154.58,50.43,13.6,0.07352941176470588,1.9,9.412056315685108,0.0007840536
293.7,476.02,17376.0,5.7551e-05,3.6135,6.3531,146.82,23.169,42.82,511.77,0.017223,41.653,0.059139,supercritical,O2,C7782447,oxygen,154.58,50.43,13.6,0.07352941176470588,1.9,9.439222684909776,0.0007826936
293.7,477.38,17406.0,5.7452e-05,3.6094,6.3521,146.79,23.172,42.815,512.52,0.016924,41.72,0.059231,supercritical,O2,C7782447,oxygen,154.58,50.43,13.6,0.07352941176470588,1.9,9.46619075946857,0.0007813471999999999
293.7,478.75,17436.0,5.7353e-05,3.6053,6.3511,146.76,23.175,42.809,513.26,0.016627,41.787,0.059324,supercritical,O2,C7782447,oxygen,154.58,50.43,13.6,0.07352941176470588,1.9,9.493357128693239,0.0007800007999999999
293.7,480.12,17466.0,5.7255e-05,3.6012,6.3501,146.73,23.178,42.804,514.01,0.016332,41.854,0.059417,supercritical,O2,C7782447,oxygen,154.58,50.43,13.6,0.07352941176470588,1.9,9.520523497917907,0.0007786679999999999
293.7,481.48,17495.0,5.7158e-05,3.5972,6.3492,146.7,23.181,42.798,514.75,0.016039,41.921,0.059509,supercritical,O2,C7782447,oxygen,154.58,50.43,13.6,0.07352941176470588,1.9,9.547491572476702,0.0007773487999999999
293.7,482.85,17525.0,5.7061e-05,3.5931,6.3483,146.67,23.184,42.793,515.5,0.015748,41.988,0.059602,supercritical,O2,C7782447,oxygen,154.58,50.43,13.6,0.07352941176470588,1.9,9.57465794170137,0.0007760296
293.7,484.21,17555.0,5.6965e-05,3.5891,6.3474,146.64,23.187,42.788,516.24,0.015458,42.055,0.059694,supercritical,O2,C7782447,oxygen,154.58,50.43,13.6,0.07352941176470588,1.9,9.601626016260163,0.000774724
293.7,485.57,17584.0,5.6869e-05,3.585,6.3465,146.61,23.19,42.782,516.99,0.01517,42.122,0.059786,supercritical,O2,C7782447,oxygen,154.58,50.43,13.6,0.07352941176470588,1.9,9.628594090818957,0.0007734184
293.7,486.94,17614.0,5.6774e-05,3.581,6.3456,146.58,23.193,42.776,517.73,0.014883,42.189,0.059878,supercritical,O2,C7782447,oxygen,154.58,50.43,13.6,0.07352941176470588,1.9,9.655760460043625,0.0007721264
293.7,488.31,17643.0,5.668e-05,3.577,6.3447,146.56,23.195,42.771,518.47,0.014599,42.256,0.05997,supercritical,O2,C7782447,oxygen,154.58,50.43,13.6,0.07352941176470588,1.9,9.682926829268293,0.000770848
293.7,489.67,17672.0,5.6586e-05,3.573,6.3439,146.53,23.198,42.765,519.22,0.014316,42.322,0.060062,supercritical,O2,C7782447,oxygen,154.58,50.43,13.6,0.07352941176470588,1.9,9.709894903827088,0.0007695696
293.7,491.04,17701.0,5.6493e-05,3.569,6.343,146.5,23.201,42.759,519.96,0.014035,42.389,0.060154,supercritical,O2,C7782447,oxygen,154.58,50.43,13.6,0.07352941176470588,1.9,9.737061273051756,0.0007683048
293.7,492.4,17730.0,5.6401e-05,3.5651,6.3422,146.47,23.204,42.754,520.7,0.013755,42.456,0.060246,supercritical,O2,C7782447,oxygen,154.58,50.43,13.6,0.07352941176470588,1.9,9.764029347610549,0.0007670536
293.7,493.76,17759.0,5.6309e-05,3.5611,6.3414,146.44,23.207,42.748,521.44,0.013477,42.522,0.060337,supercritical,O2,C7782447,oxygen,154.58,50.43,13.6,0.07352941176470588,1.9,9.790997422169344,0.0007658023999999999
293.7,495.13,17788.0,5.6217e-05,3.5572,6.3407,146.41,23.21,42.742,522.18,0.013201,42.589,0.060429,supercritical,O2,C7782447,oxygen,154.58,50.43,13.6,0.07352941176470588,1.9,9.818163791394012,0.0007645512
293.7,496.5,17817.0,5.6127e-05,3.5532,6.3399,146.38,23.212,42.736,522.92,0.012926,42.655,0.06052,supercritical,O2,C7782447,oxygen,154.58,50.43,13.6,0.07352941176470588,1.9,9.84533016061868,0.0007633272
293.7,497.86,17846.0,5.6036e-05,3.5493,6.3392,146.35,23.215,42.73,523.66,0.012653,42.722,0.060612,supercritical,O2,C7782447,oxygen,154.58,50.43,13.6,0.07352941176470588,1.9,9.872298235177475,0.0007620896
293.7,499.23,17874.0,5.5947e-05,3.5454,6.3384,146.32,23.218,42.724,524.4,0.012381,42.788,0.060703,supercritical,O2,C7782447,oxygen,154.58,50.43,13.6,0.07352941176470588,1.9,9.899464604402143,0.0007608792
293.7,500.59,17903.0,5.5858e-05,3.5415,6.3377,146.3,23.221,42.718,525.14,0.012111,42.854,0.060794,supercritical,O2,C7782447,oxygen,154.58,50.43,13.6,0.07352941176470588,1.9,9.926432678960936,0.0007596688
293.7,501.95,17931.0,5.5769e-05,3.5376,6.337,146.27,23.224,42.712,525.87,0.011843,42.92,0.060885,supercritical,O2,C7782447,oxygen,154.58,50.43,13.6,0.07352941176470588,1.9,9.95340075351973,0.0007584584
293.7,503.32,17959.0,5.5681e-05,3.5338,6.3363,146.24,23.227,42.706,526.61,0.011576,42.986,0.060977,supercritical,O2,C7782447,oxygen,154.58,50.43,13.6,0.07352941176470588,1.9,9.980567122744398,0.0007572616
293.7,504.69,17988.0,5.5594e-05,3.5299,6.3357,146.21,23.229,42.7,527.35,0.011311,43.052,0.061067,supercritical,O2,C7782447,oxygen,154.58,50.43,13.6,0.07352941176470588,1.9,10.007733491969066,0.0007560784
293.7,506.05,18016.0,5.5507e-05,3.5261,6.335,146.18,23.232,42.694,528.08,0.011047,43.119,0.061158,supercritical,O2,C7782447,oxygen,154.58,50.43,13.6,0.07352941176470588,1.9,10.034701566527861,0.0007548952
293.7,507.42,18044.0,5.5421e-05,3.5222,6.3344,146.16,23.235,42.688,528.82,0.010785,43.184,0.061249,supercritical,O2,C7782447,oxygen,154.58,50.43,13.6,0.07352941176470588,1.9,10.06186793575253,0.0007537255999999999
293.7,508.78,18072.0,5.5335e-05,3.5184,6.3338,146.13,23.238,42.682,529.55,0.010524,43.25,0.06134,supercritical,O2,C7782447,oxygen,154.58,50.43,13.6,0.07352941176470588,1.9,10.088836010311322,0.0007525559999999999
293.7,510.14,18100.0,5.525e-05,3.5146,6.3331,146.1,23.241,42.676,530.29,0.010265,43.316,0.06143,supercritical,O2,C7782447,oxygen,154.58,50.43,13.6,0.07352941176470588,1.9,10.115804084870117,0.0007513999999999999
293.7,511.51,18128.0,5.5165e-05,3.5108,6.3326,146.07,23.243,42.67,531.02,0.010007,43.382,0.061521,supercritical,O2,C7782447,oxygen,154.58,50.43,13.6,0.07352941176470588,1.9,10.142970454094785,0.000750244
293.7,512.88,18155.0,5.5081e-05,3.507,6.332,146.04,23.246,42.664,531.76,0.009751,43.448,0.061611,supercritical,O2,C7782447,oxygen,154.58,50.43,13.6,0.07352941176470588,1.9,10.170136823319453,0.0007491016
293.7,514.24,18183.0,5.4997e-05,3.5033,6.3314,146.02,23.249,42.657,532.49,0.0094963,43.514,0.061702,supercritical,O2,C7782447,oxygen,154.58,50.43,13.6,0.07352941176470588,1.9,10.197104897878248,0.0007479592
293.7,515.61,18210.0,5.4914e-05,3.4995,6.3309,145.99,23.252,42.651,533.22,0.009243,43.579,0.061792,supercritical,O2,C7782447,oxygen,154.58,50.43,13.6,0.07352941176470588,1.9,10.224271267102916,0.0007468304
293.7,516.97,18238.0,5.4831e-05,3.4958,6.3303,145.96,23.255,42.645,533.95,0.0089912,43.645,0.061882,supercritical,O2,C7782447,oxygen,154.58,50.43,13.6,0.07352941176470588,1.9,10.25123934166171,0.0007457016
293.7,518.34,18265.0,5.4749e-05,3.492,6.3298,145.94,23.257,42.638,534.68,0.0087409,43.71,0.061972,supercritical,O2,C7782447,oxygen,154.58,50.43,13.6,0.07352941176470588,1.9,10.278405710886378,0.0007445864
293.7,519.7,18293.0,5.4667e-05,3.4883,6.3293,145.91,23.26,42.632,535.41,0.008492,43.776,0.062062,supercritical,O2,C7782447,oxygen,154.58,50.43,13.6,0.07352941176470588,1.9,10.305373785445173,0.0007434712
293.7,521.07,18320.0,5.4586e-05,3.4846,6.3288,145.88,23.263,42.626,536.14,0.0082445,43.841,0.062152,supercritical,O2,C7782447,oxygen,154.58,50.43,13.6,0.07352941176470588,1.9,10.332540154669841,0.0007423696
293.7,522.43,18347.0,5.4505e-05,3.4809,6.3284,145.85,23.266,42.619,536.87,0.0079984,43.907,0.062242,supercritical,O2,C7782447,oxygen,154.58,50.43,13.6,0.07352941176470588,1.9,10.359508229228632,0.000741268