Temperature (K),Pressure (bar),Density (mol/m3),Volume (m3/mol),Internal Energy (kJ/mol),Enthalpy (kJ/mol),Entropy (J/mol*K),Cv (J/mol*K),Cp (J/mol*K),Sound Spd. (m/s),Joule-Thomson (K/bar),Viscosity (uPa*s),Therm. Cond. (W/m*K),Phase,substance,substance_id,substance_name,Tc,Pc,rhoc,Vmc,Tr,Pr,Vmr
365.02,672.13,20711.0,4.8283e-05,12.497,15.742,56.29,40.044,72.52,733.46,-0.0031804,96.462,0.11133,supercritical,CO2,C124389,carbon-dioxide,304.18,73.8,10.6,0.09433962264150944,1.2,9.107452574525746,0.0005117997999999999
365.02,674.58,20730.0,4.824e-05,12.488,15.742,56.259,40.049,72.478,734.85,-0.0033664,96.663,0.11151,supercritical,CO2,C124389,carbon-dioxide,304.18,73.8,10.6,0.09433962264150944,1.2,9.140650406504067,0.000511344
365.02,677.04,20749.0,4.8196e-05,12.48,15.743,56.228,40.053,72.435,736.23,-0.0035508,96.864,0.11169,supercritical,CO2,C124389,carbon-dioxide,304.18,73.8,10.6,0.09433962264150944,1.2,9.173983739837398,0.0005108776
365.02,679.5,20767.0,4.8153e-05,12.472,15.744,56.197,40.057,72.394,737.61,-0.0037335,97.064,0.11187,supercritical,CO2,C124389,carbon-dioxide,304.18,73.8,10.6,0.09433962264150944,1.2,9.207317073170731,0.0005104217999999999
365.02,681.96,20786.0,4.811e-05,12.463,15.744,56.167,40.061,72.352,738.98,-0.0039147,97.263,0.11204,supercritical,CO2,C124389,carbon-dioxide,304.18,73.8,10.6,0.09433962264150944,1.2,9.240650406504066,0.0005099659999999999
365.02,684.42,20804.0,4.8068e-05,12.455,15.745,56.136,40.066,72.311,740.35,-0.0040942,97.463,0.11222,supercritical,CO2,C124389,carbon-dioxide,304.18,73.8,10.6,0.09433962264150944,1.2,9.273983739837398,0.0005095208
365.02,686.88,20822.0,4.8025e-05,12.447,15.746,56.106,40.07,72.27,741.72,-0.0042722,97.662,0.11239,supercritical,CO2,C124389,carbon-dioxide,304.18,73.8,10.6,0.09433962264150944,1.2,9.307317073170733,0.000509065
365.02,689.33,20841.0,4.7983e-05,12.439,15.747,56.076,40.075,72.23,743.08,-0.0044487,97.86,0.11257,supercritical,CO2,C124389,carbon-dioxide,304.18,73.8,10.6,0.09433962264150944,1.2,9.340514905149053,0.0005086197999999999
365.02,691.79,20859.0,4.7941e-05,12.431,15.747,56.046,40.079,72.19,744.44,-0.0046237,98.059,0.11275,supercritical,CO2,C124389,carbon-dioxide,304.18,73.8,10.6,0.09433962264150944,1.2,9.373848238482385,0.0005081746
365.02,694.25,20877.0,4.79e-05,12.423,15.748,56.016,40.083,72.15,745.8,-0.0047971,98.257,0.11292,supercritical,CO2,C124389,carbon-dioxide,304.18,73.8,10.6,0.09433962264150944,1.2,9.407181571815718,0.0005077399999999999
365.02,696.71,20895.0,4.7858e-05,12.415,15.749,55.986,40.088,72.111,747.15,-0.0049691,98.454,0.11309,supercritical,CO2,C124389,carbon-dioxide,304.18,73.8,10.6,0.09433962264150944,1.2,9.440514905149053,0.0005072948
365.02,699.17,20913.0,4.7817e-05,12.407,15.75,55.956,40.092,72.072,748.5,-0.0051396,98.652,0.11327,supercritical,CO2,C124389,carbon-dioxide,304.18,73.8,10.6,0.09433962264150944,1.2,9.473848238482384,0.0005068602
365.02,701.63,20931.0,4.7776e-05,12.399,15.751,55.927,40.096,72.033,749.84,-0.0053086,98.849,0.11344,supercritical,CO2,C124389,carbon-dioxide,304.18,73.8,10.6,0.09433962264150944,1.2,9.50718157181572,0.0005064255999999999
365.02,704.08,20949.0,4.7736e-05,12.391,15.752,55.897,40.101,71.994,751.18,-0.0054763,99.045,0.11362,supercritical,CO2,C124389,carbon-dioxide,304.18,73.8,10.6,0.09433962264150944,1.2,9.54037940379404,0.0005060015999999999
365.02,706.54,20966.0,4.7695e-05,12.383,15.753,55.868,40.105,71.956,752.52,-0.0056425,99.242,0.11379,supercritical,CO2,C124389,carbon-dioxide,304.18,73.8,10.6,0.09433962264150944,1.2,9.573712737127371,0.000505567
365.02,709.0,20984.0,4.7655e-05,12.375,15.754,55.838,40.11,71.918,753.85,-0.0058074,99.438,0.11396,supercritical,CO2,C124389,carbon-dioxide,304.18,73.8,10.6,0.09433962264150944,1.2,9.607046070460704,0.0005051429999999999
365.02,711.46,21002.0,4.7615e-05,12.367,15.755,55.809,40.114,71.881,755.18,-0.0059708,99.634,0.11413,supercritical,CO2,C124389,carbon-dioxide,304.18,73.8,10.6,0.09433962264150944,1.2,9.64037940379404,0.0005047189999999999
365.02,713.92,21019.0,4.7576e-05,12.359,15.756,55.78,40.119,71.844,756.5,-0.0061329,99.829,0.11431,supercritical,CO2,C124389,carbon-dioxide,304.18,73.8,10.6,0.09433962264150944,1.2,9.67371273712737,0.0005043055999999999
365.02,716.38,21037.0,4.7536e-05,12.352,15.757,55.751,40.123,71.807,757.82,-0.0062937,100.02,0.11448,supercritical,CO2,C124389,carbon-dioxide,304.18,73.8,10.6,0.09433962264150944,1.2,9.707046070460706,0.0005038816
365.02,718.83,21054.0,4.7497e-05,12.344,15.758,55.722,40.128,71.77,759.14,-0.0064532,100.22,0.11465,supercritical,CO2,C124389,carbon-dioxide,304.18,73.8,10.6,0.09433962264150944,1.2,9.740243902439026,0.0005034682
365.02,721.29,21071.0,4.7458e-05,12.336,15.759,55.693,40.132,71.733,760.46,-0.0066113,100.41,0.11482,supercritical,CO2,C124389,carbon-dioxide,304.18,73.8,10.6,0.09433962264150944,1.2,9.773577235772358,0.0005030547999999999
365.02,723.75,21089.0,4.7419e-05,12.329,15.761,55.664,40.137,71.697,761.77,-0.0067682,100.61,0.11499,supercritical,CO2,C124389,carbon-dioxide,304.18,73.8,10.6,0.09433962264150944,1.2,9.80691056910569,0.0005026414
365.02,726.21,21106.0,4.7381e-05,12.321,15.762,55.636,40.141,71.661,763.07,-0.0069238,100.8,0.11516,supercritical,CO2,C124389,carbon-dioxide,304.18,73.8,10.6,0.09433962264150944,1.2,9.840243902439026,0.0005022386
365.02,728.67,21123.0,4.7342e-05,12.313,15.763,55.607,40.146,71.626,764.38,-0.0070781,101.0,0.11533,supercritical,CO2,C124389,carbon-dioxide,304.18,73.8,10.6,0.09433962264150944,1.2,9.873577235772357,0.0005018252
365.02,731.13,21140.0,4.7304e-05,12.306,15.764,55.579,40.15,71.591,765.68,-0.0072312,101.19,0.1155,supercritical,CO2,C124389,carbon-dioxide,304.18,73.8,10.6,0.09433962264150944,1.2,9.906910569105692,0.0005014224
365.02,733.58,21157.0,4.7266e-05,12.298,15.766,55.551,40.155,71.555,766.98,-0.007383,101.38,0.11567,supercritical,CO2,C124389,carbon-dioxide,304.18,73.8,10.6,0.09433962264150944,1.2,9.940108401084013,0.0005010195999999999
365.02,736.04,21174.0,4.7229e-05,12.291,15.767,55.522,40.159,71.521,768.27,-0.0075337,101.58,0.11584,supercritical,CO2,C124389,carbon-dioxide,304.18,73.8,10.6,0.09433962264150944,1.2,9.973441734417344,0.0005006273999999999
365.02,738.5,21190.0,4.7191e-05,12.283,15.768,55.494,40.164,71.486,769.56,-0.0076831,101.77,0.11601,supercritical,CO2,C124389,carbon-dioxide,304.18,73.8,10.6,0.09433962264150944,1.2,10.006775067750677,0.0005002246
365.02,740.96,21207.0,4.7154e-05,12.276,15.77,55.466,40.168,71.452,770.85,-0.0078314,101.96,0.11618,supercritical,CO2,C124389,carbon-dioxide,304.18,73.8,10.6,0.09433962264150944,1.2,10.040108401084012,0.0004998324
365.02,743.42,21224.0,4.7117e-05,12.268,15.771,55.438,40.173,71.418,772.13,-0.0079785,102.15,0.11634,supercritical,CO2,C124389,carbon-dioxide,304.18,73.8,10.6,0.09433962264150944,1.2,10.073441734417344,0.0004994402
365.02,745.88,21241.0,4.708e-05,12.261,15.772,55.41,40.177,71.384,773.41,-0.0081244,102.34,0.11651,supercritical,CO2,C124389,carbon-dioxide,304.18,73.8,10.6,0.09433962264150944,1.2,10.106775067750679,0.000499048
365.02,748.33,21257.0,4.7043e-05,12.253,15.774,55.383,40.182,71.351,774.69,-0.0082692,102.54,0.11668,supercritical,CO2,C124389,carbon-dioxide,304.18,73.8,10.6,0.09433962264150944,1.2,10.139972899728999,0.0004986557999999999
365.02,750.79,21274.0,4.7007e-05,12.246,15.775,55.355,40.186,71.317,775.96,-0.0084128,102.73,0.11685,supercritical,CO2,C124389,carbon-dioxide,304.18,73.8,10.6,0.09433962264150944,1.2,10.17330623306233,0.0004982742
365.02,753.25,21290.0,4.697e-05,12.239,15.777,55.327,40.191,71.284,777.23,-0.0085554,102.92,0.11701,supercritical,CO2,C124389,carbon-dioxide,304.18,73.8,10.6,0.09433962264150944,1.2,10.206639566395664,0.000497882
365.02,755.71,21306.0,4.6934e-05,12.231,15.778,55.3,40.196,71.252,778.5,-0.0086968,103.11,0.11718,supercritical,CO2,C124389,carbon-dioxide,304.18,73.8,10.6,0.09433962264150944,1.2,10.239972899728999,0.0004975004
365.02,758.17,21323.0,4.6898e-05,12.224,15.78,55.272,40.2,71.219,779.76,-0.0088371,103.3,0.11735,supercritical,CO2,C124389,carbon-dioxide,304.18,73.8,10.6,0.09433962264150944,1.2,10.27330623306233,0.0004971187999999999
365.02,760.63,21339.0,4.6863e-05,12.217,15.781,55.245,40.205,71.187,781.02,-0.0089764,103.49,0.11751,supercritical,CO2,C124389,carbon-dioxide,304.18,73.8,10.6,0.09433962264150944,1.2,10.306639566395665,0.0004967478
365.02,763.08,21355.0,4.6827e-05,12.21,15.783,55.218,40.209,71.155,782.28,-0.0091146,103.68,0.11768,supercritical,CO2,C124389,carbon-dioxide,304.18,73.8,10.6,0.09433962264150944,1.2,10.339837398373986,0.0004963661999999999
365.02,765.54,21371.0,4.6792e-05,12.202,15.785,55.191,40.214,71.123,783.53,-0.0092517,103.87,0.11784,supercritical,CO2,C124389,carbon-dioxide,304.18,73.8,10.6,0.09433962264150944,1.2,10.373170731707317,0.0004959952
365.02,768.0,21387.0,4.6757e-05,12.195,15.786,55.164,40.219,71.091,784.78,-0.0093878,104.06,0.11801,supercritical,CO2,C124389,carbon-dioxide,304.18,73.8,10.6,0.09433962264150944,1.2,10.40650406504065,0.0004956241999999999
365.02,770.46,21403.0,4.6722e-05,12.188,15.788,55.137,40.223,71.06,786.03,-0.0095229,104.25,0.11817,supercritical,CO2,C124389,carbon-dioxide,304.18,73.8,10.6,0.09433962264150944,1.2,10.439837398373985,0.0004952531999999999
365.02,772.92,21419.0,4.6687e-05,12.181,15.789,55.11,40.228,71.029,787.27,-0.0096569,104.44,0.11834,supercritical,CO2,C124389,carbon-dioxide,304.18,73.8,10.6,0.09433962264150944,1.2,10.473170731707317,0.0004948821999999999
365.02,775.38,21435.0,4.6652e-05,12.174,15.791,55.083,40.233,70.998,788.51,-0.00979,104.62,0.1185,supercritical,CO2,C124389,carbon-dioxide,304.18,73.8,10.6,0.09433962264150944,1.2,10.506504065040652,0.0004945112
365.02,777.83,21451.0,4.6618e-05,12.167,15.793,55.056,40.237,70.967,789.75,-0.009922,104.81,0.11867,supercritical,CO2,C124389,carbon-dioxide,304.18,73.8,10.6,0.09433962264150944,1.2,10.539701897018972,0.0004941508
365.02,780.29,21467.0,4.6584e-05,12.16,15.795,55.03,40.242,70.937,790.99,-0.010053,105.0,0.11883,supercritical,CO2,C124389,carbon-dioxide,304.18,73.8,10.6,0.09433962264150944,1.2,10.573035230352303,0.0004937904
365.02,782.75,21482.0,4.655e-05,12.153,15.796,55.003,40.247,70.906,792.22,-0.010183,105.19,0.119,supercritical,CO2,C124389,carbon-dioxide,304.18,73.8,10.6,0.09433962264150944,1.2,10.606368563685637,0.00049343
365.02,785.21,21498.0,4.6516e-05,12.146,15.798,54.977,40.251,70.876,793.45,-0.010312,105.38,0.11916,supercritical,CO2,C124389,carbon-dioxide,304.18,73.8,10.6,0.09433962264150944,1.2,10.639701897018972,0.0004930695999999999
365.02,787.67,21514.0,4.6482e-05,12.139,15.8,54.951,40.256,70.846,794.67,-0.01044,105.56,0.11932,supercritical,CO2,C124389,carbon-dioxide,304.18,73.8,10.6,0.09433962264150944,1.2,10.673035230352303,0.0004927092
365.02,790.12,21529.0,4.6448e-05,12.132,15.802,54.924,40.261,70.817,795.9,-0.010568,105.75,0.11948,supercritical,CO2,C124389,carbon-dioxide,304.18,73.8,10.6,0.09433962264150944,1.2,10.706233062330623,0.0004923487999999999
365.02,792.58,21545.0,4.6415e-05,12.125,15.804,54.898,40.265,70.787,797.12,-0.010694,105.94,0.11965,supercritical,CO2,C124389,carbon-dioxide,304.18,73.8,10.6,0.09433962264150944,1.2,10.739566395663958,0.000491999
365.02,795.04,21560.0,4.6382e-05,12.118,15.806,54.872,40.27,70.758,798.33,-0.010819,106.13,0.11981,supercritical,CO2,C124389,carbon-dioxide,304.18,73.8,10.6,0.09433962264150944,1.2,10.77289972899729,0.0004916491999999999
365.02,797.5,21576.0,4.6349e-05,12.111,15.807,54.846,40.275,70.729,799.55,-0.010944,106.31,0.11997,supercritical,CO2,C124389,carbon-dioxide,304.18,73.8,10.6,0.09433962264150944,1.2,10.806233062330623,0.0004912994
365.02,799.96,21591.0,4.6316e-05,12.104,15.809,54.82,40.279,70.7,800.76,-0.011067,106.5,0.12013,supercritical,CO2,C124389,carbon-dioxide,304.18,73.8,10.6,0.09433962264150944,1.2,10.839566395663958,0.0004909496
365.02,802.42,21606.0,4.6283e-05,12.097,15.811,54.794,40.284,70.672,801.97,-0.01119,106.68,0.12029,supercritical,CO2,C124389,carbon-dioxide,304.18,73.8,10.6,0.09433962264150944,1.2,10.87289972899729,0.0004905997999999999
365.02,804.87,21621.0,4.6251e-05,12.091,15.813,54.768,40.289,70.643,803.17,-0.011312,106.87,0.12045,supercritical,CO2,C124389,carbon-dioxide,304.18,73.8,10.6,0.09433962264150944,1.2,10.90609756097561,0.0004902605999999999
365.02,807.33,21636.0,4.6218e-05,12.084,15.815,54.742,40.294,70.615,804.38,-0.011433,107.06,0.12061,supercritical,CO2,C124389,carbon-dioxide,304.18,73.8,10.6,0.09433962264150944,1.2,10.939430894308945,0.0004899107999999999
365.02,809.79,21652.0,4.6186e-05,12.077,15.817,54.717,40.298,70.587,805.58,-0.011553,107.24,0.12078,supercritical,CO2,C124389,carbon-dioxide,304.18,73.8,10.6,0.09433962264150944,1.2,10.972764227642276,0.0004895715999999999
365.02,812.25,21667.0,4.6154e-05,12.07,15.819,54.691,40.303,70.559,806.77,-0.011672,107.43,0.12094,supercritical,CO2,C124389,carbon-dioxide,304.18,73.8,10.6,0.09433962264150944,1.2,11.00609756097561,0.0004892324
365.02,814.71,21682.0,4.6122e-05,12.064,15.821,54.666,40.308,70.531,807.97,-0.01179,107.61,0.1211,supercritical,CO2,C124389,carbon-dioxide,304.18,73.8,10.6,0.09433962264150944,1.2,11.039430894308945,0.0004888932
365.02,817.17,21697.0,4.609e-05,12.057,15.823,54.64,40.313,70.504,809.16,-0.011908,107.8,0.12126,supercritical,CO2,C124389,carbon-dioxide,304.18,73.8,10.6,0.09433962264150944,1.2,11.072764227642276,0.000488554
365.02,819.62,21711.0,4.6059e-05,12.05,15.825,54.615,40.317,70.476,810.35,-0.012024,107.98,0.12142,supercritical,CO2,C124389,carbon-dioxide,304.18,73.8,10.6,0.09433962264150944,1.2,11.105962059620596,0.0004882254
365.02,822.08,21726.0,4.6027e-05,12.044,15.827,54.59,40.322,70.449,811.53,-0.01214,108.16,0.12157,supercritical,CO2,C124389,carbon-dioxide,304.18,73.8,10.6,0.09433962264150944,1.2,11.139295392953931,0.00048788619999999994
365.02,824.54,21741.0,4.5996e-05,12.037,15.83,54.565,40.327,70.422,812.71,-0.012255,108.35,0.12173,supercritical,CO2,C124389,carbon-dioxide,304.18,73.8,10.6,0.09433962264150944,1.2,11.172628726287263,0.00048755759999999994
365.02,827.0,21756.0,4.5965e-05,12.03,15.832,54.539,40.332,70.396,813.89,-0.012369,108.53,0.12189,supercritical,CO2,C124389,carbon-dioxide,304.18,73.8,10.6,0.09433962264150944,1.2,11.205962059620596,0.00048722899999999994
365.02,829.46,21771.0,4.5934e-05,12.024,15.834,54.514,40.336,70.369,815.07,-0.012483,108.72,0.12205,supercritical,CO2,C124389,carbon-dioxide,304.18,73.8,10.6,0.09433962264150944,1.2,11.239295392953931,0.00048690039999999994
365.02,831.92,21785.0,4.5903e-05,12.017,15.836,54.489,40.341,70.343,816.25,-0.012595,108.9,0.12221,supercritical,CO2,C124389,carbon-dioxide,304.18,73.8,10.6,0.09433962264150944,1.2,11.272628726287262,0.00048657179999999993
365.02,834.37,21800.0,4.5872e-05,12.011,15.838,54.464,40.346,70.316,817.42,-0.012707,109.08,0.12237,supercritical,CO2,C124389,carbon-dioxide,304.18,73.8,10.6,0.09433962264150944,1.2,11.305826558265583,0.00048624319999999993
365.02,836.83,21814.0,4.5841e-05,12.004,15.84,54.44,40.351,70.29,818.59,-0.012818,109.27,0.12253,supercritical,CO2,C124389,carbon-dioxide,304.18,73.8,10.6,0.09433962264150944,1.2,11.339159891598918,0.00048591459999999993
365.02,839.29,21829.0,4.5811e-05,11.998,15.843,54.415,40.356,70.264,819.75,-0.012929,109.45,0.12268,supercritical,CO2,C124389,carbon-dioxide,304.18,73.8,10.6,0.09433962264150944,1.2,11.37249322493225,0.00048559659999999996
365.02,841.75,21843.0,4.5781e-05,11.991,15.845,54.39,40.36,70.239,820.92,-0.013038,109.63,0.12284,supercritical,CO2,C124389,carbon-dioxide,304.18,73.8,10.6,0.09433962264150944,1.2,11.405826558265582,0.0004852786
365.02,844.21,21858.0,4.5751e-05,11.985,15.847,54.365,40.365,70.213,822.08,-0.013147,109.81,0.123,supercritical,CO2,C124389,carbon-dioxide,304.18,73.8,10.6,0.09433962264150944,1.2,11.439159891598917,0.0004849606
365.02,846.67,21872.0,4.5721e-05,11.978,15.849,54.341,40.37,70.188,823.24,-0.013255,110.0,0.12315,supercritical,CO2,C124389,carbon-dioxide,304.18,73.8,10.6,0.09433962264150944,1.2,11.472493224932249,0.00048464259999999996
365.02,849.12,21886.0,4.5691e-05,11.972,15.852,54.316,40.375,70.162,824.39,-0.013363,110.18,0.12331,supercritical,CO2,C124389,carbon-dioxide,304.18,73.8,10.6,0.09433962264150944,1.2,11.50569105691057,0.00048432459999999994
365.02,851.58,21901.0,4.5661e-05,11.966,15.854,54.292,40.38,70.137,825.55,-0.013469,110.36,0.12347,supercritical,CO2,C124389,carbon-dioxide,304.18,73.8,10.6,0.09433962264150944,1.2,11.539024390243904,0.0004840066
365.02,854.04,21915.0,4.5631e-05,11.959,15.856,54.268,40.385,70.112,826.7,-0.013575,110.54,0.12362,supercritical,CO2,C124389,carbon-dioxide,304.18,73.8,10.6,0.09433962264150944,1.2,11.572357723577236,0.00048368859999999996
365.02,856.5,21929.0,4.5602e-05,11.953,15.859,54.243,40.389,70.088,827.84,-0.01368,110.72,0.12378,supercritical,CO2,C124389,carbon-dioxide,304.18,73.8,10.6,0.09433962264150944,1.2,11.605691056910569,0.00048338119999999997
365.02,858.96,21943.0,4.5572e-05,11.947,15.861,54.219,40.394,70.063,828.99,-0.013785,110.9,0.12393,supercritical,CO2,C124389,carbon-dioxide,304.18,73.8,10.6,0.09433962264150944,1.2,11.639024390243904,0.00048306319999999995
365.02,861.42,21957.0,4.5543e-05,11.94,15.863,54.195,40.399,70.038,830.13,-0.013889,111.09,0.12409,supercritical,CO2,C124389,carbon-dioxide,304.18,73.8,10.6,0.09433962264150944,1.2,11.672357723577235,0.00048275579999999997
365.02,863.87,21971.0,4.5514e-05,11.934,15.866,54.171,40.404,70.014,831.27,-0.013992,111.27,0.12425,supercritical,CO2,C124389,carbon-dioxide,304.18,73.8,10.6,0.09433962264150944,1.2,11.705555555555556,0.00048244839999999993
365.02,866.33,21985.0,4.5485e-05,11.928,15.868,54.147,40.409,69.99,832.41,-0.014094,111.45,0.1244,supercritical,CO2,C124389,carbon-dioxide,304.18,73.8,10.6,0.09433962264150944,1.2,11.73888888888889,0.000482141
365.02,868.79,21999.0,4.5456e-05,11.922,15.871,54.123,40.414,69.966,833.55,-0.014196,111.63,0.12456,supercritical,CO2,C124389,carbon-dioxide,304.18,73.8,10.6,0.09433962264150944,1.2,11.772222222222222,0.00048183359999999997
365.02,871.25,22013.0,4.5428e-05,11.915,15.873,54.099,40.418,69.942,834.68,-0.014297,111.81,0.12471,supercritical,CO2,C124389,carbon-dioxide,304.18,73.8,10.6,0.09433962264150944,1.2,11.805555555555555,0.00048153679999999997
365.02,873.71,22027.0,4.5399e-05,11.909,15.876,54.075,40.423,69.919,835.81,-0.014397,111.99,0.12486,supercritical,CO2,C124389,carbon-dioxide,304.18,73.8,10.6,0.09433962264150944,1.2,11.83888888888889,0.00048122939999999993
365.02,876.17,22041.0,4.5371e-05,11.903,15.878,54.051,40.428,69.895,836.94,-0.014497,112.17,0.12502,supercritical,CO2,C124389,carbon-dioxide,304.18,73.8,10.6,0.09433962264150944,1.2,11.872222222222222,0.0004809326
365.02,878.62,22054.0,4.5342e-05,11.897,15.881,54.028,40.433,69.872,838.06,-0.014596,112.35,0.12517,supercritical,CO2,C124389,carbon-dioxide,304.18,73.8,10.6,0.09433962264150944,1.2,11.905420054200542,0.00048062519999999995
365.02,881.08,22068.0,4.5314e-05,11.891,15.883,54.004,40.438,69.848,839.19,-0.014695,112.53,0.12533,supercritical,CO2,C124389,carbon-dioxide,304.18,73.8,10.6,0.09433962264150944,1.2,11.938753387533877,0.00048032839999999995
365.02,883.54,22082.0,4.5286e-05,11.884,15.886,53.981,40.443,69.825,840.31,-0.014793,112.71,0.12548,supercritical,CO2,C124389,carbon-dioxide,304.18,73.8,10.6,0.09433962264150944,1.2,11.972086720867209,0.00048003159999999995
365.02,886.0,22095.0,4.5258e-05,11.878,15.888,53.957,40.448,69.802,841.43,-0.01489,112.89,0.12563,supercritical,CO2,C124389,carbon-dioxide,304.18,73.8,10.6,0.09433962264150944,1.2,12.005420054200542,0.00047973479999999995
365.02,888.46,22109.0,4.523e-05,11.872,15.891,53.934,40.453,69.779,842.54,-0.014986,113.07,0.12579,supercritical,CO2,C124389,carbon-dioxide,304.18,73.8,10.6,0.09433962264150944,1.2,12.038753387533877,0.00047943799999999995
365.02,890.92,22123.0,4.5203e-05,11.866,15.893,53.91,40.458,69.757,843.65,-0.015082,113.24,0.12594,supercritical,CO2,C124389,carbon-dioxide,304.18,73.8,10.6,0.09433962264150944,1.2,12.072086720867208,0.0004791518