Temperature (K),Pressure (bar),Density (mol/m3),Volume (m3/mol),Internal Energy (kJ/mol),Enthalpy (kJ/mol),Entropy (J/mol*K),Cv (J/mol*K),Cp (J/mol*K),Sound Spd. (m/s),Joule-Thomson (K/bar),Viscosity (uPa*s),Therm. Cond. (W/m*K),Phase,substance,substance_id,substance_name,Tc,Pc,rhoc,Vmc,Tr,Pr,Vmr
231.87,391.39,20628.0,4.8477e-05,1.7076,3.605,138.01,23.897,49.101,506.52,0.020671,46.523,0.065119,supercritical,O2,C7782447,oxygen,154.58,50.43,13.6,0.07352941176470588,1.5,7.761054927622447,0.0006592871999999999
231.87,392.75,20662.0,4.8397e-05,1.7028,3.6036,137.97,23.901,49.066,507.55,0.020269,46.626,0.065246,supercritical,O2,C7782447,oxygen,154.58,50.43,13.6,0.07352941176470588,1.5,7.788023002181242,0.0006581991999999999
231.87,394.12,20696.0,4.8318e-05,1.698,3.6023,137.94,23.905,49.032,508.58,0.01987,46.729,0.065374,supercritical,O2,C7782447,oxygen,154.58,50.43,13.6,0.07352941176470588,1.5,7.81518937140591,0.0006571248
231.87,395.49,20730.0,4.8239e-05,1.6932,3.601,137.9,23.908,48.998,509.61,0.019474,46.831,0.065501,supercritical,O2,C7782447,oxygen,154.58,50.43,13.6,0.07352941176470588,1.5,7.842355740630577,0.0006560504
231.87,396.85,20764.0,4.8161e-05,1.6884,3.5997,137.87,23.912,48.964,510.63,0.019082,46.934,0.065628,supercritical,O2,C7782447,oxygen,154.58,50.43,13.6,0.07352941176470588,1.5,7.869323815189372,0.0006549896
231.87,398.21,20797.0,4.8084e-05,1.6836,3.5984,137.84,23.915,48.93,511.66,0.018694,47.036,0.065754,supercritical,O2,C7782447,oxygen,154.58,50.43,13.6,0.07352941176470588,1.5,7.8962918897481655,0.0006539424
231.87,399.58,20830.0,4.8007e-05,1.6789,3.5972,137.8,23.919,48.897,512.68,0.018309,47.138,0.065881,supercritical,O2,C7782447,oxygen,154.58,50.43,13.6,0.07352941176470588,1.5,7.9234582589728335,0.0006528952
231.87,400.94,20863.0,4.7931e-05,1.6742,3.596,137.77,23.923,48.863,513.69,0.017927,47.24,0.066007,supercritical,O2,C7782447,oxygen,154.58,50.43,13.6,0.07352941176470588,1.5,7.950426333531628,0.0006518616
231.87,402.31,20896.0,4.7855e-05,1.6695,3.5948,137.74,23.926,48.83,514.71,0.017549,47.342,0.066133,supercritical,O2,C7782447,oxygen,154.58,50.43,13.6,0.07352941176470588,1.5,7.977592702756296,0.000650828
231.87,403.68,20929.0,4.778e-05,1.6648,3.5936,137.7,23.93,48.797,515.73,0.017174,47.444,0.066259,supercritical,O2,C7782447,oxygen,154.58,50.43,13.6,0.07352941176470588,1.5,8.004759071980963,0.000649808
231.87,405.04,20962.0,4.7706e-05,1.6602,3.5925,137.67,23.933,48.764,516.74,0.016802,47.546,0.066385,supercritical,O2,C7782447,oxygen,154.58,50.43,13.6,0.07352941176470588,1.5,8.031727146539758,0.0006488015999999999
231.87,406.4,20994.0,4.7632e-05,1.6556,3.5914,137.64,23.937,48.732,517.75,0.016433,47.647,0.06651,supercritical,O2,C7782447,oxygen,154.58,50.43,13.6,0.07352941176470588,1.5,8.058695221098551,0.0006477952
231.87,407.77,21027.0,4.7559e-05,1.651,3.5903,137.6,23.94,48.699,518.76,0.016068,47.748,0.066636,supercritical,O2,C7782447,oxygen,154.58,50.43,13.6,0.07352941176470588,1.5,8.08586159032322,0.0006468024000000001
231.87,409.13,21059.0,4.7486e-05,1.6464,3.5892,137.57,23.944,48.667,519.76,0.015705,47.85,0.066761,supercritical,O2,C7782447,oxygen,154.58,50.43,13.6,0.07352941176470588,1.5,8.112829664882014,0.0006458096
231.87,410.5,21091.0,4.7414e-05,1.6419,3.5882,137.54,23.948,48.635,520.77,0.015346,47.951,0.066886,supercritical,O2,C7782447,oxygen,154.58,50.43,13.6,0.07352941176470588,1.5,8.139996034106682,0.0006448303999999999
231.87,411.87,21123.0,4.7343e-05,1.6373,3.5872,137.51,23.951,48.603,521.77,0.01499,48.051,0.06701,supercritical,O2,C7782447,oxygen,154.58,50.43,13.6,0.07352941176470588,1.5,8.16716240333135,0.0006438647999999999
231.87,413.23,21154.0,4.7272e-05,1.6328,3.5862,137.48,23.955,48.571,522.77,0.014637,48.152,0.067135,supercritical,O2,C7782447,oxygen,154.58,50.43,13.6,0.07352941176470588,1.5,8.194130477890145,0.0006428991999999999
231.87,414.6,21186.0,4.7201e-05,1.6283,3.5853,137.44,23.958,48.539,523.76,0.014287,48.253,0.067259,supercritical,O2,C7782447,oxygen,154.58,50.43,13.6,0.07352941176470588,1.5,8.221296847114813,0.0006419335999999999
231.87,415.96,21217.0,4.7131e-05,1.6239,3.5843,137.41,23.962,48.507,524.76,0.01394,48.353,0.067383,supercritical,O2,C7782447,oxygen,154.58,50.43,13.6,0.07352941176470588,1.5,8.248264921673607,0.0006409816
231.87,417.32,21249.0,4.7062e-05,1.6194,3.5834,137.38,23.966,48.476,525.75,0.013595,48.453,0.067507,supercritical,O2,C7782447,oxygen,154.58,50.43,13.6,0.07352941176470588,1.5,8.2752329962324,0.0006400431999999999
231.87,418.69,21280.0,4.6993e-05,1.615,3.5825,137.35,23.969,48.445,526.74,0.013254,48.554,0.067631,supercritical,O2,C7782447,oxygen,154.58,50.43,13.6,0.07352941176470588,1.5,8.302399365457068,0.0006391048
231.87,420.06,21311.0,4.6925e-05,1.6106,3.5817,137.32,23.973,48.414,527.73,0.012916,48.654,0.067755,supercritical,O2,C7782447,oxygen,154.58,50.43,13.6,0.07352941176470588,1.5,8.329565734681736,0.00063818
231.87,421.42,21342.0,4.6857e-05,1.6062,3.5808,137.29,23.976,48.383,528.72,0.01258,48.753,0.067878,supercritical,O2,C7782447,oxygen,154.58,50.43,13.6,0.07352941176470588,1.5,8.356533809240531,0.0006372552
231.87,422.79,21372.0,4.6789e-05,1.6018,3.58,137.26,23.98,48.352,529.7,0.012247,48.853,0.068002,supercritical,O2,C7782447,oxygen,154.58,50.43,13.6,0.07352941176470588,1.5,8.3837001784652,0.0006363304
231.87,424.15,21403.0,4.6723e-05,1.5975,3.5792,137.22,23.984,48.322,530.68,0.011917,48.953,0.068125,supercritical,O2,C7782447,oxygen,154.58,50.43,13.6,0.07352941176470588,1.5,8.410668253023994,0.0006354328
231.87,425.51,21433.0,4.6656e-05,1.5931,3.5784,137.19,23.987,48.291,531.66,0.01159,49.052,0.068248,supercritical,O2,C7782447,oxygen,154.58,50.43,13.6,0.07352941176470588,1.5,8.437636327582787,0.0006345216
231.87,426.88,21464.0,4.659e-05,1.5888,3.5777,137.16,23.991,48.261,532.64,0.011265,49.152,0.06837,supercritical,O2,C7782447,oxygen,154.58,50.43,13.6,0.07352941176470588,1.5,8.464802696807455,0.000633624
231.87,428.25,21494.0,4.6525e-05,1.5845,3.5769,137.13,23.994,48.231,533.62,0.010943,49.251,0.068493,supercritical,O2,C7782447,oxygen,154.58,50.43,13.6,0.07352941176470588,1.5,8.491969066032123,0.00063274
231.87,429.61,21524.0,4.646e-05,1.5803,3.5762,137.1,23.998,48.201,534.59,0.010624,49.35,0.068615,supercritical,O2,C7782447,oxygen,154.58,50.43,13.6,0.07352941176470588,1.5,8.518937140590918,0.000631856
231.87,430.98,21554.0,4.6395e-05,1.576,3.5756,137.07,24.002,48.171,535.56,0.010307,49.449,0.068738,supercritical,O2,C7782447,oxygen,154.58,50.43,13.6,0.07352941176470588,1.5,8.546103509815586,0.0006309719999999999
231.87,432.34,21584.0,4.6331e-05,1.5718,3.5749,137.04,24.005,48.142,536.53,0.009993,49.548,0.06886,supercritical,O2,C7782447,oxygen,154.58,50.43,13.6,0.07352941176470588,1.5,8.57307158437438,0.0006301016
231.87,433.7,21613.0,4.6268e-05,1.5676,3.5742,137.01,24.009,48.112,537.5,0.0096814,49.646,0.068982,supercritical,O2,C7782447,oxygen,154.58,50.43,13.6,0.07352941176470588,1.5,8.600039658933175,0.0006292448
231.87,435.07,21643.0,4.6205e-05,1.5634,3.5736,136.98,24.012,48.083,538.47,0.0093724,49.745,0.069104,supercritical,O2,C7782447,oxygen,154.58,50.43,13.6,0.07352941176470588,1.5,8.627206028157843,0.000628388
231.87,436.44,21672.0,4.6142e-05,1.5592,3.573,136.95,24.016,48.054,539.43,0.0090658,49.844,0.069225,supercritical,O2,C7782447,oxygen,154.58,50.43,13.6,0.07352941176470588,1.5,8.654372397382511,0.0006275311999999999
231.87,437.8,21701.0,4.608e-05,1.555,3.5724,136.92,24.02,48.025,540.39,0.0087617,49.942,0.069347,supercritical,O2,C7782447,oxygen,154.58,50.43,13.6,0.07352941176470588,1.5,8.681340471941304,0.0006266879999999999
231.87,439.17,21731.0,4.6018e-05,1.5509,3.5719,136.89,24.023,47.996,541.35,0.00846,50.04,0.069468,supercritical,O2,C7782447,oxygen,154.58,50.43,13.6,0.07352941176470588,1.5,8.708506841165972,0.0006258447999999999
231.87,440.53,21760.0,4.5957e-05,1.5468,3.5713,136.86,24.027,47.968,542.31,0.0081608,50.138,0.069589,supercritical,O2,C7782447,oxygen,154.58,50.43,13.6,0.07352941176470588,1.5,8.735474915724767,0.0006250152
231.87,441.89,21789.0,4.5896e-05,1.5427,3.5708,136.83,24.03,47.939,543.26,0.0078639,50.236,0.06971,supercritical,O2,C7782447,oxygen,154.58,50.43,13.6,0.07352941176470588,1.5,8.762442990283562,0.0006241856
231.87,443.26,21817.0,4.5835e-05,1.5386,3.5703,136.8,24.034,47.911,544.22,0.0075694,50.334,0.069831,supercritical,O2,C7782447,oxygen,154.58,50.43,13.6,0.07352941176470588,1.5,8.78960935950823,0.0006233559999999999
231.87,444.62,21846.0,4.5775e-05,1.5345,3.5698,136.78,24.038,47.882,545.17,0.0072772,50.432,0.069951,supercritical,O2,C7782447,oxygen,154.58,50.43,13.6,0.07352941176470588,1.5,8.816577434067023,0.00062254
231.87,445.99,21874.0,4.5715e-05,1.5305,3.5693,136.75,24.041,47.854,546.12,0.0069873,50.529,0.070072,supercritical,O2,C7782447,oxygen,154.58,50.43,13.6,0.07352941176470588,1.5,8.84374380329169,0.0006217239999999999
231.87,447.36,21903.0,4.5656e-05,1.5264,3.5689,136.72,24.045,47.826,547.07,0.0066997,50.627,0.070192,supercritical,O2,C7782447,oxygen,154.58,50.43,13.6,0.07352941176470588,1.5,8.870910172516359,0.0006209216
231.87,448.72,21931.0,4.5597e-05,1.5224,3.5685,136.69,24.048,47.799,548.01,0.0064144,50.724,0.070312,supercritical,O2,C7782447,oxygen,154.58,50.43,13.6,0.07352941176470588,1.5,8.897878247075154,0.0006201192
231.87,450.08,21959.0,4.5539e-05,1.5184,3.568,136.66,24.052,47.771,548.96,0.0061313,50.822,0.070433,supercritical,O2,C7782447,oxygen,154.58,50.43,13.6,0.07352941176470588,1.5,8.924846321633948,0.0006193304
231.87,451.45,21987.0,4.5481e-05,1.5144,3.5677,136.63,24.056,47.744,549.9,0.0058504,50.919,0.070552,supercritical,O2,C7782447,oxygen,154.58,50.43,13.6,0.07352941176470588,1.5,8.952012690858616,0.0006185416
231.87,452.81,22015.0,4.5423e-05,1.5105,3.5673,136.6,24.059,47.716,550.84,0.0055717,51.016,0.070672,supercritical,O2,C7782447,oxygen,154.58,50.43,13.6,0.07352941176470588,1.5,8.978980765417411,0.0006177528
231.87,454.18,22043.0,4.5365e-05,1.5065,3.5669,136.58,24.063,47.689,551.78,0.0052951,51.113,0.070792,supercritical,O2,C7782447,oxygen,154.58,50.43,13.6,0.07352941176470588,1.5,9.00614713464208,0.0006169639999999999
231.87,455.55,22071.0,4.5309e-05,1.5026,3.5666,136.55,24.066,47.662,552.71,0.0050207,51.21,0.070911,supercritical,O2,C7782447,oxygen,154.58,50.43,13.6,0.07352941176470588,1.5,9.033313503866747,0.0006162024
231.87,456.91,22099.0,4.5252e-05,1.4987,3.5663,136.52,24.07,47.635,553.65,0.0047484,51.306,0.071031,supercritical,O2,C7782447,oxygen,154.58,50.43,13.6,0.07352941176470588,1.5,9.06028157842554,0.0006154272
231.87,458.27,22126.0,4.5196e-05,1.4948,3.566,136.49,24.074,47.608,554.58,0.0044782,51.403,0.07115,supercritical,O2,C7782447,oxygen,154.58,50.43,13.6,0.07352941176470588,1.5,9.087249652984335,0.0006146656
231.87,459.64,22153.0,4.514e-05,1.4909,3.5657,136.46,24.077,47.582,555.51,0.0042101,51.5,0.071269,supercritical,O2,C7782447,oxygen,154.58,50.43,13.6,0.07352941176470588,1.5,9.114416022209003,0.000613904
231.87,461.0,22181.0,4.5084e-05,1.487,3.5654,136.44,24.081,47.555,556.44,0.003944,51.596,0.071388,supercritical,O2,C7782447,oxygen,154.58,50.43,13.6,0.07352941176470588,1.5,9.141384096767798,0.0006131423999999999
231.87,462.37,22208.0,4.5029e-05,1.4832,3.5652,136.41,24.084,47.529,557.36,0.0036799,51.692,0.071506,supercritical,O2,C7782447,oxygen,154.58,50.43,13.6,0.07352941176470588,1.5,9.168550465992466,0.0006123944
231.87,463.74,22235.0,4.4974e-05,1.4793,3.565,136.38,24.088,47.503,558.29,0.0034179,51.789,0.071625,supercritical,O2,C7782447,oxygen,154.58,50.43,13.6,0.07352941176470588,1.5,9.195716835217134,0.0006116464
231.87,465.1,22262.0,4.492e-05,1.4755,3.5647,136.35,24.092,47.477,559.21,0.0031578,51.885,0.071743,supercritical,O2,C7782447,oxygen,154.58,50.43,13.6,0.07352941176470588,1.5,9.222684909775927,0.0006109119999999999
231.87,466.46,22289.0,4.4866e-05,1.4717,3.5645,136.33,24.095,47.451,560.13,0.0028997,51.981,0.071862,supercritical,O2,C7782447,oxygen,154.58,50.43,13.6,0.07352941176470588,1.5,9.249652984334721,0.0006101776
231.87,467.83,22315.0,4.4812e-05,1.4679,3.5644,136.3,24.099,47.425,561.05,0.0026436,52.077,0.07198,supercritical,O2,C7782447,oxygen,154.58,50.43,13.6,0.07352941176470588,1.5,9.27681935355939,0.0006094431999999999
231.87,469.19,22342.0,4.4759e-05,1.4641,3.5642,136.27,24.102,47.399,561.97,0.0023893,52.173,0.072098,supercritical,O2,C7782447,oxygen,154.58,50.43,13.6,0.07352941176470588,1.5,9.303787428118184,0.0006087224
231.87,470.56,22368.0,4.4706e-05,1.4604,3.5641,136.24,24.106,47.374,562.88,0.002137,52.268,0.072216,supercritical,O2,C7782447,oxygen,154.58,50.43,13.6,0.07352941176470588,1.5,9.330953797342852,0.0006080016
231.87,471.93,22395.0,4.4653e-05,1.4566,3.5639,136.22,24.109,47.349,563.8,0.0018865,52.364,0.072334,supercritical,O2,C7782447,oxygen,154.58,50.43,13.6,0.07352941176470588,1.5,9.35812016656752,0.0006072808
231.87,473.29,22421.0,4.4601e-05,1.4529,3.5638,136.19,24.113,47.323,564.71,0.0016379,52.459,0.072451,supercritical,O2,C7782447,oxygen,154.58,50.43,13.6,0.07352941176470588,1.5,9.385088241126315,0.0006065736
231.87,474.65,22447.0,4.4549e-05,1.4492,3.5637,136.16,24.117,47.298,565.62,0.0013912,52.555,0.072569,supercritical,O2,C7782447,oxygen,154.58,50.43,13.6,0.07352941176470588,1.5,9.412056315685108,0.0006058664000000001
231.87,476.02,22473.0,4.4497e-05,1.4455,3.5636,136.14,24.12,47.273,566.53,0.0011463,52.65,0.072686,supercritical,O2,C7782447,oxygen,154.58,50.43,13.6,0.07352941176470588,1.5,9.439222684909776,0.0006051591999999999
231.87,477.38,22499.0,4.4446e-05,1.4418,3.5636,136.11,24.124,47.248,567.43,0.00090316,52.745,0.072803,supercritical,O2,C7782447,oxygen,154.58,50.43,13.6,0.07352941176470588,1.5,9.46619075946857,0.0006044656
231.87,478.75,22525.0,4.4394e-05,1.4381,3.5635,136.08,24.127,47.224,568.34,0.00066183,52.841,0.07292,supercritical,O2,C7782447,oxygen,154.58,50.43,13.6,0.07352941176470588,1.5,9.493357128693239,0.0006037584000000001
231.87,480.12,22551.0,4.4344e-05,1.4345,3.5635,136.06,24.131,47.199,569.24,0.00042227,52.936,0.073037,supercritical,O2,C7782447,oxygen,154.58,50.43,13.6,0.07352941176470588,1.5,9.520523497917907,0.0006030784
231.87,481.48,22577.0,4.4293e-05,1.4308,3.5635,136.03,24.134,47.175,570.14,0.00018446,53.03,0.073154,supercritical,O2,C7782447,oxygen,154.58,50.43,13.6,0.07352941176470588,1.5,9.547491572476702,0.0006023847999999999
231.87,482.85,22602.0,4.4243e-05,1.4272,3.5635,136.01,24.138,47.15,571.04,-5.1608e-05,53.125,0.073271,supercritical,O2,C7782447,oxygen,154.58,50.43,13.6,0.07352941176470588,1.5,9.57465794170137,0.0006017048
231.87,484.21,22628.0,4.4193e-05,1.4236,3.5635,135.98,24.142,47.126,571.94,-0.00028597,53.22,0.073388,supercritical,O2,C7782447,oxygen,154.58,50.43,13.6,0.07352941176470588,1.5,9.601626016260163,0.0006010248
231.87,485.57,22653.0,4.4144e-05,1.42,3.5635,135.95,24.145,47.102,572.83,-0.00051862,53.315,0.073504,supercritical,O2,C7782447,oxygen,154.58,50.43,13.6,0.07352941176470588,1.5,9.628594090818957,0.0006003584
231.87,486.94,22679.0,4.4094e-05,1.4164,3.5635,135.93,24.149,47.078,573.73,-0.0007496,53.409,0.07362,supercritical,O2,C7782447,oxygen,154.58,50.43,13.6,0.07352941176470588,1.5,9.655760460043625,0.0005996784
231.87,488.31,22704.0,4.4045e-05,1.4128,3.5636,135.9,24.152,47.054,574.62,-0.00097891,53.504,0.073736,supercritical,O2,C7782447,oxygen,154.58,50.43,13.6,0.07352941176470588,1.5,9.682926829268293,0.000599012
231.87,489.67,22729.0,4.3997e-05,1.4093,3.5637,135.88,24.156,47.031,575.51,-0.0012066,53.598,0.073853,supercritical,O2,C7782447,oxygen,154.58,50.43,13.6,0.07352941176470588,1.5,9.709894903827088,0.0005983592
231.87,491.04,22754.0,4.3948e-05,1.4057,3.5637,135.85,24.159,47.007,576.4,-0.0014326,53.693,0.073969,supercritical,O2,C7782447,oxygen,154.58,50.43,13.6,0.07352941176470588,1.5,9.737061273051756,0.0005976928
231.87,492.4,22779.0,4.39e-05,1.4022,3.5638,135.83,24.163,46.984,577.29,-0.001657,53.787,0.074084,supercritical,O2,C7782447,oxygen,154.58,50.43,13.6,0.07352941176470588,1.5,9.764029347610549,0.0005970400000000001
231.87,493.76,22804.0,4.3852e-05,1.3987,3.564,135.8,24.166,46.96,578.17,-0.0018798,53.881,0.0742,supercritical,O2,C7782447,oxygen,154.58,50.43,13.6,0.07352941176470588,1.5,9.790997422169344,0.0005963871999999999
231.87,495.13,22829.0,4.3805e-05,1.3952,3.5641,135.78,24.17,46.937,579.06,-0.0021011,53.975,0.074316,supercritical,O2,C7782447,oxygen,154.58,50.43,13.6,0.07352941176470588,1.5,9.818163791394012,0.000595748
231.87,496.5,22853.0,4.3757e-05,1.3917,3.5642,135.75,24.173,46.914,579.94,-0.0023208,54.069,0.074431,supercritical,O2,C7782447,oxygen,154.58,50.43,13.6,0.07352941176470588,1.5,9.84533016061868,0.0005950952
231.87,497.86,22878.0,4.371e-05,1.3882,3.5644,135.73,24.177,46.891,580.82,-0.0025389,54.163,0.074546,supercritical,O2,C7782447,oxygen,154.58,50.43,13.6,0.07352941176470588,1.5,9.872298235177475,0.0005944559999999999
231.87,499.23,22902.0,4.3664e-05,1.3847,3.5646,135.7,24.18,46.868,581.7,-0.0027554,54.257,0.074662,supercritical,O2,C7782447,oxygen,154.58,50.43,13.6,0.07352941176470588,1.5,9.899464604402143,0.0005938304
231.87,500.59,22927.0,4.3617e-05,1.3813,3.5647,135.68,24.184,46.845,582.57,-0.0029705,54.35,0.074777,supercritical,O2,C7782447,oxygen,154.58,50.43,13.6,0.07352941176470588,1.5,9.926432678960936,0.0005931911999999999
231.87,501.95,22951.0,4.3571e-05,1.3779,3.5649,135.65,24.188,46.823,583.45,-0.0031841,54.444,0.074892,supercritical,O2,C7782447,oxygen,154.58,50.43,13.6,0.07352941176470588,1.5,9.95340075351973,0.0005925656
231.87,503.32,22975.0,4.3525e-05,1.3744,3.5651,135.63,24.191,46.8,584.32,-0.0033961,54.538,0.075006,supercritical,O2,C7782447,oxygen,154.58,50.43,13.6,0.07352941176470588,1.5,9.980567122744398,0.00059194
231.87,504.69,22999.0,4.348e-05,1.371,3.5654,135.6,24.195,46.778,585.19,-0.0036067,54.631,0.075121,supercritical,O2,C7782447,oxygen,154.58,50.43,13.6,0.07352941176470588,1.5,10.007733491969066,0.0005913279999999999
231.87,506.05,23023.0,4.3434e-05,1.3676,3.5656,135.58,24.198,46.756,586.06,-0.0038158,54.725,0.075236,supercritical,O2,C7782447,oxygen,154.58,50.43,13.6,0.07352941176470588,1.5,10.034701566527861,0.0005907023999999999
231.87,507.42,23047.0,4.3389e-05,1.3642,3.5659,135.55,24.202,46.734,586.93,-0.0040235,54.818,0.07535,supercritical,O2,C7782447,oxygen,154.58,50.43,13.6,0.07352941176470588,1.5,10.06186793575253,0.0005900904
231.87,508.78,23071.0,4.3344e-05,1.3609,3.5661,135.53,24.205,46.711,587.8,-0.0042297,54.911,0.075465,supercritical,O2,C7782447,oxygen,154.58,50.43,13.6,0.07352941176470588,1.5,10.088836010311322,0.0005894784
231.87,510.14,23095.0,4.3299e-05,1.3575,3.5664,135.5,24.209,46.69,588.66,-0.0044345,55.004,0.075579,supercritical,O2,C7782447,oxygen,154.58,50.43,13.6,0.07352941176470588,1.5,10.115804084870117,0.0005888664
231.87,511.51,23119.0,4.3255e-05,1.3541,3.5667,135.48,24.212,46.668,589.53,-0.0046379,55.097,0.075693,supercritical,O2,C7782447,oxygen,154.58,50.43,13.6,0.07352941176470588,1.5,10.142970454094785,0.000588268
231.87,512.88,23142.0,4.3211e-05,1.3508,3.567,135.46,24.216,46.646,590.39,-0.0048399,55.19,0.075807,supercritical,O2,C7782447,oxygen,154.58,50.43,13.6,0.07352941176470588,1.5,10.170136823319453,0.0005876696
231.87,514.24,23166.0,4.3167e-05,1.3475,3.5673,135.43,24.219,46.624,591.25,-0.0050406,55.283,0.075921,supercritical,O2,C7782447,oxygen,154.58,50.43,13.6,0.07352941176470588,1.5,10.197104897878248,0.0005870712000000001
231.87,515.61,23189.0,4.3123e-05,1.3442,3.5676,135.41,24.223,46.603,592.11,-0.0052398,55.376,0.076035,supercritical,O2,C7782447,oxygen,154.58,50.43,13.6,0.07352941176470588,1.5,10.224271267102916,0.0005864727999999999
231.87,516.97,23213.0,4.308e-05,1.3409,3.568,135.38,24.226,46.582,592.97,-0.0054377,55.469,0.076148,supercritical,O2,C7782447,oxygen,154.58,50.43,13.6,0.07352941176470588,1.5,10.25123934166171,0.000585888
231.87,518.34,23236.0,4.3037e-05,1.3376,3.5683,135.36,24.23,46.56,593.82,-0.0056343,55.562,0.076262,supercritical,O2,C7782447,oxygen,154.58,50.43,13.6,0.07352941176470588,1.5,10.278405710886378,0.0005853032