Temperature (K),Pressure (bar),Density (mol/m3),Volume (m3/mol),Internal Energy (kJ/mol),Enthalpy (kJ/mol),Entropy (J/mol*K),Cv (J/mol*K),Cp (J/mol*K),Sound Spd. (m/s),Joule-Thomson (K/bar),Viscosity (uPa*s),Therm. Cond. (W/m*K),Phase,substance,substance_id,substance_name,Tc,Pc,rhoc,Vmc,Tr,Pr,Vmr
293.7,264.44,11260.0,8.8806e-05,4.4565,6.8049,153.38,22.616,41.942,395.75,0.095123,30.467,0.043275,supercritical,O2,C7782447,oxygen,154.58,50.43,13.6,0.07352941176470588,1.9,5.243704144358516,0.0012077616000000001
293.7,265.81,11311.0,8.841e-05,4.4495,6.7995,153.32,22.621,41.969,396.44,0.094352,30.542,0.043385,supercritical,O2,C7782447,oxygen,154.58,50.43,13.6,0.07352941176470588,1.9,5.270870513583184,0.001202376
293.7,267.18,11361.0,8.8019e-05,4.4425,6.7941,153.26,22.626,41.996,397.13,0.093585,30.617,0.043496,supercritical,O2,C7782447,oxygen,154.58,50.43,13.6,0.07352941176470588,1.9,5.298036882807852,0.0011970584
293.7,268.54,11411.0,8.7632e-05,4.4355,6.7888,153.2,22.63,42.022,397.82,0.092821,30.692,0.043606,supercritical,O2,C7782447,oxygen,154.58,50.43,13.6,0.07352941176470588,1.9,5.325004957366647,0.0011917952000000001
293.7,269.9,11461.0,8.725e-05,4.4285,6.7835,153.14,22.635,42.048,398.52,0.092063,30.767,0.043717,supercritical,O2,C7782447,oxygen,154.58,50.43,13.6,0.07352941176470588,1.9,5.351973031925441,0.0011866000000000001
293.7,271.27,11511.0,8.6873e-05,4.4216,6.7782,153.08,22.639,42.073,399.21,0.091308,30.841,0.043827,supercritical,O2,C7782447,oxygen,154.58,50.43,13.6,0.07352941176470588,1.9,5.379139401150109,0.0011814728
293.7,272.63,11561.0,8.65e-05,4.4147,6.773,153.02,22.644,42.098,399.91,0.090557,30.916,0.043938,supercritical,O2,C7782447,oxygen,154.58,50.43,13.6,0.07352941176470588,1.9,5.406107475708903,0.0011764
293.7,274.0,11610.0,8.6131e-05,4.4078,6.7678,152.97,22.649,42.123,400.61,0.089811,30.991,0.044048,supercritical,O2,C7782447,oxygen,154.58,50.43,13.6,0.07352941176470588,1.9,5.433273844933571,0.0011713816
293.7,275.37,11660.0,8.5766e-05,4.4009,6.7626,152.91,22.653,42.147,401.32,0.089069,31.067,0.044159,supercritical,O2,C7782447,oxygen,154.58,50.43,13.6,0.07352941176470588,1.9,5.460440214158239,0.0011664176
293.7,276.73,11709.0,8.5406e-05,4.3941,6.7575,152.85,22.658,42.171,402.02,0.08833,31.142,0.044269,supercritical,O2,C7782447,oxygen,154.58,50.43,13.6,0.07352941176470588,1.9,5.487408288717034,0.0011615216
293.7,278.1,11758.0,8.5049e-05,4.3873,6.7525,152.79,22.662,42.194,402.73,0.087596,31.217,0.044379,supercritical,O2,C7782447,oxygen,154.58,50.43,13.6,0.07352941176470588,1.9,5.514574657941702,0.0011566664000000001
293.7,279.46,11807.0,8.4697e-05,4.3805,6.7474,152.74,22.666,42.217,403.43,0.086867,31.292,0.04449,supercritical,O2,C7782447,oxygen,154.58,50.43,13.6,0.07352941176470588,1.9,5.541542732500496,0.0011518792
293.7,280.82,11856.0,8.4349e-05,4.3737,6.7425,152.68,22.671,42.239,404.14,0.086141,31.367,0.0446,supercritical,O2,C7782447,oxygen,154.58,50.43,13.6,0.07352941176470588,1.9,5.56851080705929,0.0011471464
293.7,282.19,11904.0,8.4005e-05,4.367,6.7375,152.63,22.675,42.261,404.85,0.085419,31.442,0.04471,supercritical,O2,C7782447,oxygen,154.58,50.43,13.6,0.07352941176470588,1.9,5.595677176283958,0.001142468
293.7,283.56,11953.0,8.3664e-05,4.3603,6.7326,152.57,22.68,42.283,405.57,0.084702,31.517,0.04482,supercritical,O2,C7782447,oxygen,154.58,50.43,13.6,0.07352941176470588,1.9,5.622843545508626,0.0011378304
293.7,284.92,12001.0,8.3328e-05,4.3536,6.7277,152.51,22.684,42.304,406.28,0.083988,31.593,0.04493,supercritical,O2,C7782447,oxygen,154.58,50.43,13.6,0.07352941176470588,1.9,5.64981162006742,0.0011332608
293.7,286.29,12049.0,8.2995e-05,4.3469,6.7229,152.46,22.688,42.325,406.99,0.083279,31.668,0.04504,supercritical,O2,C7782447,oxygen,154.58,50.43,13.6,0.07352941176470588,1.9,5.676977989292088,0.001128732
293.7,287.65,12097.0,8.2666e-05,4.3402,6.7181,152.4,22.693,42.345,407.71,0.082574,31.743,0.04515,supercritical,O2,C7782447,oxygen,154.58,50.43,13.6,0.07352941176470588,1.9,5.703946063850882,0.0011242576
293.7,289.01,12145.0,8.2341e-05,4.3336,6.7134,152.35,22.697,42.365,408.43,0.081873,31.818,0.045259,supercritical,O2,C7782447,oxygen,154.58,50.43,13.6,0.07352941176470588,1.9,5.730914138409677,0.0011198376
293.7,290.38,12192.0,8.2019e-05,4.327,6.7086,152.3,22.701,42.385,409.15,0.081175,31.893,0.045369,supercritical,O2,C7782447,oxygen,154.58,50.43,13.6,0.07352941176470588,1.9,5.758080507634345,0.0011154584
293.7,291.75,12240.0,8.17e-05,4.3204,6.704,152.24,22.706,42.404,409.87,0.080482,31.969,0.045479,supercritical,O2,C7782447,oxygen,154.58,50.43,13.6,0.07352941176470588,1.9,5.785246876859013,0.00111112
293.7,293.11,12287.0,8.1386e-05,4.3138,6.6993,152.19,22.71,42.423,410.59,0.079793,32.044,0.045588,supercritical,O2,C7782447,oxygen,154.58,50.43,13.6,0.07352941176470588,1.9,5.812214951417807,0.0011068496
293.7,294.48,12334.0,8.1074e-05,4.3073,6.6947,152.13,22.714,42.441,411.32,0.079108,32.119,0.045698,supercritical,O2,C7782447,oxygen,154.58,50.43,13.6,0.07352941176470588,1.9,5.839381320642475,0.0011026064
293.7,295.84,12381.0,8.0766e-05,4.3008,6.6902,152.08,22.718,42.459,412.04,0.078427,32.194,0.045807,supercritical,O2,C7782447,oxygen,154.58,50.43,13.6,0.07352941176470588,1.9,5.866349395201269,0.0010984176
293.7,297.2,12428.0,8.0462e-05,4.2943,6.6856,152.03,22.722,42.477,412.77,0.077751,32.269,0.045917,supercritical,O2,C7782447,oxygen,154.58,50.43,13.6,0.07352941176470588,1.9,5.893317469760063,0.0010942832
293.7,298.57,12475.0,8.016e-05,4.2878,6.6811,151.98,22.727,42.494,413.5,0.077078,32.345,0.046026,supercritical,O2,C7782447,oxygen,154.58,50.43,13.6,0.07352941176470588,1.9,5.920483838984731,0.001090176
293.7,299.94,12522.0,7.9862e-05,4.2814,6.6767,151.92,22.731,42.511,414.23,0.076409,32.42,0.046135,supercritical,O2,C7782447,oxygen,154.58,50.43,13.6,0.07352941176470588,1.9,5.947650208209399,0.0010861231999999999
293.7,301.3,12568.0,7.9567e-05,4.2749,6.6723,151.87,22.735,42.528,414.96,0.075744,32.495,0.046244,supercritical,O2,C7782447,oxygen,154.58,50.43,13.6,0.07352941176470588,1.9,5.974618282768194,0.0010821112
293.7,302.67,12614.0,7.9275e-05,4.2685,6.6679,151.82,22.739,42.544,415.69,0.075083,32.57,0.046353,supercritical,O2,C7782447,oxygen,154.58,50.43,13.6,0.07352941176470588,1.9,6.001784651992862,0.00107814
293.7,304.03,12660.0,7.8987e-05,4.2621,6.6636,151.77,22.743,42.56,416.42,0.074425,32.645,0.046462,supercritical,O2,C7782447,oxygen,154.58,50.43,13.6,0.07352941176470588,1.9,6.028752726551655,0.0010742231999999999
293.7,305.39,12706.0,7.8701e-05,4.2558,6.6593,151.72,22.747,42.575,417.15,0.073772,32.72,0.04657,supercritical,O2,C7782447,oxygen,154.58,50.43,13.6,0.07352941176470588,1.9,6.05572080111045,0.0010703336000000001
293.7,306.76,12752.0,7.8418e-05,4.2494,6.655,151.67,22.751,42.59,417.89,0.073123,32.795,0.046679,supercritical,O2,C7782447,oxygen,154.58,50.43,13.6,0.07352941176470588,1.9,6.082887170335118,0.0010664848
293.7,308.12,12798.0,7.8138e-05,4.2431,6.6508,151.61,22.755,42.605,418.62,0.072478,32.87,0.046788,supercritical,O2,C7782447,oxygen,154.58,50.43,13.6,0.07352941176470588,1.9,6.109855244893913,0.0010626768
293.7,309.49,12843.0,7.7862e-05,4.2368,6.6466,151.56,22.759,42.62,419.36,0.071836,32.945,0.046896,supercritical,O2,C7782447,oxygen,154.58,50.43,13.6,0.07352941176470588,1.9,6.137021614118581,0.0010589231999999999
293.7,310.86,12889.0,7.7588e-05,4.2305,6.6424,151.51,22.763,42.634,420.1,0.071199,33.02,0.047004,supercritical,O2,C7782447,oxygen,154.58,50.43,13.6,0.07352941176470588,1.9,6.164187983343249,0.0010551968
293.7,312.22,12934.0,7.7317e-05,4.2243,6.6383,151.46,22.767,42.648,420.84,0.070565,33.095,0.047113,supercritical,O2,C7782447,oxygen,154.58,50.43,13.6,0.07352941176470588,1.9,6.191156057902043,0.0010515112
293.7,313.58,12979.0,7.7048e-05,4.2181,6.6342,151.41,22.771,42.661,421.58,0.069935,33.17,0.047221,supercritical,O2,C7782447,oxygen,154.58,50.43,13.6,0.07352941176470588,1.9,6.2181241324608365,0.0010478528
293.7,314.95,13024.0,7.6783e-05,4.2119,6.6301,151.36,22.775,42.674,422.32,0.069309,33.245,0.047329,supercritical,O2,C7782447,oxygen,154.58,50.43,13.6,0.07352941176470588,1.9,6.2452905016855045,0.0010442488
293.7,316.31,13069.0,7.652e-05,4.2057,6.6261,151.32,22.779,42.687,423.06,0.068687,33.32,0.047436,supercritical,O2,C7782447,oxygen,154.58,50.43,13.6,0.07352941176470588,1.9,6.272258576244299,0.001040672
293.7,317.68,13113.0,7.626e-05,4.1995,6.6221,151.27,22.783,42.7,423.81,0.068068,33.395,0.047544,supercritical,O2,C7782447,oxygen,154.58,50.43,13.6,0.07352941176470588,1.9,6.299424945468967,0.0010371360000000001
293.7,319.05,13158.0,7.6002e-05,4.1934,6.6182,151.22,22.787,42.712,424.55,0.067454,33.47,0.047652,supercritical,O2,C7782447,oxygen,154.58,50.43,13.6,0.07352941176470588,1.9,6.326591314693635,0.0010336272
293.7,320.41,13202.0,7.5747e-05,4.1872,6.6143,151.17,22.791,42.724,425.29,0.066843,33.544,0.047759,supercritical,O2,C7782447,oxygen,154.58,50.43,13.6,0.07352941176470588,1.9,6.35355938925243,0.0010301592
293.7,321.77,13246.0,7.5495e-05,4.1811,6.6104,151.12,22.795,42.736,426.04,0.066235,33.619,0.047867,supercritical,O2,C7782447,oxygen,154.58,50.43,13.6,0.07352941176470588,1.9,6.380527463811223,0.0010267319999999998
293.7,323.14,13290.0,7.5245e-05,4.1751,6.6065,151.07,22.799,42.747,426.79,0.065632,33.694,0.047974,supercritical,O2,C7782447,oxygen,154.58,50.43,13.6,0.07352941176470588,1.9,6.407693833035891,0.001023332
293.7,324.5,13334.0,7.4998e-05,4.169,6.6027,151.02,22.803,42.758,427.53,0.065032,33.768,0.048081,supercritical,O2,C7782447,oxygen,154.58,50.43,13.6,0.07352941176470588,1.9,6.434661907594686,0.0010199728
293.7,325.87,13377.0,7.4753e-05,4.163,6.5989,150.98,22.806,42.769,428.28,0.064436,33.843,0.048188,supercritical,O2,C7782447,oxygen,154.58,50.43,13.6,0.07352941176470588,1.9,6.461828276819354,0.0010166408
293.7,327.24,13421.0,7.451e-05,4.157,6.5952,150.93,22.81,42.779,429.03,0.063844,33.918,0.048295,supercritical,O2,C7782447,oxygen,154.58,50.43,13.6,0.07352941176470588,1.9,6.488994646044022,0.001013336
293.7,328.6,13464.0,7.427e-05,4.151,6.5915,150.88,22.814,42.789,429.78,0.063255,33.992,0.048402,supercritical,O2,C7782447,oxygen,154.58,50.43,13.6,0.07352941176470588,1.9,6.515962720602817,0.001010072
293.7,329.96,13508.0,7.4032e-05,4.145,6.5878,150.84,22.818,42.799,430.53,0.06267,34.067,0.048508,supercritical,O2,C7782447,oxygen,154.58,50.43,13.6,0.07352941176470588,1.9,6.54293079516161,0.0010068352
293.7,331.33,13551.0,7.3797e-05,4.139,6.5842,150.79,22.822,42.809,431.28,0.062088,34.141,0.048615,supercritical,O2,C7782447,oxygen,154.58,50.43,13.6,0.07352941176470588,1.9,6.5700971643862776,0.0010036392
293.7,332.69,13594.0,7.3564e-05,4.1331,6.5805,150.74,22.825,42.818,432.03,0.061511,34.215,0.048721,supercritical,O2,C7782447,oxygen,154.58,50.43,13.6,0.07352941176470588,1.9,6.597065238945072,0.0010004704
293.7,334.06,13636.0,7.3333e-05,4.1272,6.577,150.7,22.829,42.827,432.79,0.060936,34.29,0.048827,supercritical,O2,C7782447,oxygen,154.58,50.43,13.6,0.07352941176470588,1.9,6.62423160816974,0.0009973287999999999
293.7,335.43,13679.0,7.3104e-05,4.1213,6.5734,150.65,22.833,42.836,433.54,0.060366,34.364,0.048934,supercritical,O2,C7782447,oxygen,154.58,50.43,13.6,0.07352941176470588,1.9,6.651397977394408,0.0009942144
293.7,336.79,13722.0,7.2878e-05,4.1155,6.5699,150.6,22.837,42.844,434.29,0.059798,34.438,0.04904,supercritical,O2,C7782447,oxygen,154.58,50.43,13.6,0.07352941176470588,1.9,6.678366051953203,0.0009911408
293.7,338.15,13764.0,7.2653e-05,4.1096,6.5664,150.56,22.84,42.853,435.05,0.059235,34.512,0.049145,supercritical,O2,C7782447,oxygen,154.58,50.43,13.6,0.07352941176470588,1.9,6.705334126511996,0.0009880808
293.7,339.52,13806.0,7.2431e-05,4.1038,6.563,150.51,22.844,42.861,435.8,0.058675,34.586,0.049251,supercritical,O2,C7782447,oxygen,154.58,50.43,13.6,0.07352941176470588,1.9,6.732500495736664,0.0009850616
293.7,340.88,13848.0,7.2211e-05,4.098,6.5596,150.47,22.848,42.868,436.56,0.058118,34.66,0.049357,supercritical,O2,C7782447,oxygen,154.58,50.43,13.6,0.07352941176470588,1.9,6.759468570295459,0.0009820696000000001
293.7,342.25,13890.0,7.1993e-05,4.0922,6.5562,150.42,22.851,42.876,437.31,0.057565,34.734,0.049462,supercritical,O2,C7782447,oxygen,154.58,50.43,13.6,0.07352941176470588,1.9,6.786634939520127,0.0009791048
293.7,343.62,13932.0,7.1777e-05,4.0864,6.5528,150.38,22.855,42.883,438.07,0.057015,34.808,0.049567,supercritical,O2,C7782447,oxygen,154.58,50.43,13.6,0.07352941176470588,1.9,6.813801308744795,0.0009761672
293.7,344.98,13974.0,7.1564e-05,4.0807,6.5495,150.33,22.859,42.89,438.83,0.056469,34.882,0.049673,supercritical,O2,C7782447,oxygen,154.58,50.43,13.6,0.07352941176470588,1.9,6.84076938330359,0.0009732703999999998
293.7,346.35,14015.0,7.1352e-05,4.075,6.5462,150.29,22.862,42.897,439.58,0.055926,34.956,0.049778,supercritical,O2,C7782447,oxygen,154.58,50.43,13.6,0.07352941176470588,1.9,6.867935752528258,0.0009703872
293.7,347.71,14056.0,7.1142e-05,4.0693,6.5429,150.24,22.866,42.903,440.34,0.055387,35.03,0.049882,supercritical,O2,C7782447,oxygen,154.58,50.43,13.6,0.07352941176470588,1.9,6.894903827087051,0.0009675312000000001
293.7,349.07,14098.0,7.0934e-05,4.0636,6.5397,150.2,22.87,42.91,441.1,0.054851,35.103,0.049987,supercritical,O2,C7782447,oxygen,154.58,50.43,13.6,0.07352941176470588,1.9,6.921871901645845,0.0009647023999999999
293.7,350.44,14139.0,7.0728e-05,4.0579,6.5365,150.16,22.873,42.916,441.86,0.054318,35.177,0.050092,supercritical,O2,C7782447,oxygen,154.58,50.43,13.6,0.07352941176470588,1.9,6.949038270870513,0.0009619008000000001
293.7,351.81,14180.0,7.0524e-05,4.0523,6.5334,150.11,22.877,42.921,442.62,0.053789,35.25,0.050196,supercritical,O2,C7782447,oxygen,154.58,50.43,13.6,0.07352941176470588,1.9,6.976204640095181,0.0009591264000000001
293.7,353.17,14220.0,7.0321e-05,4.0467,6.5302,150.07,22.881,42.927,443.38,0.053263,35.324,0.050301,supercritical,O2,C7782447,oxygen,154.58,50.43,13.6,0.07352941176470588,1.9,7.003172714653976,0.0009563656
293.7,354.54,14261.0,7.0121e-05,4.0411,6.5271,150.03,22.884,42.932,444.14,0.05274,35.397,0.050405,supercritical,O2,C7782447,oxygen,154.58,50.43,13.6,0.07352941176470588,1.9,7.030339083878644,0.0009536456
293.7,355.9,14302.0,6.9922e-05,4.0355,6.524,149.98,22.888,42.937,444.9,0.052221,35.471,0.050509,supercritical,O2,C7782447,oxygen,154.58,50.43,13.6,0.07352941176470588,1.9,7.057307158437438,0.0009509392
293.7,357.26,14342.0,6.9726e-05,4.0299,6.521,149.94,22.891,42.942,445.66,0.051705,35.544,0.050613,supercritical,O2,C7782447,oxygen,154.58,50.43,13.6,0.07352941176470588,1.9,7.084275232996232,0.0009482736
293.7,358.63,14382.0,6.9531e-05,4.0244,6.518,149.9,22.895,42.947,446.42,0.051192,35.617,0.050716,supercritical,O2,C7782447,oxygen,154.58,50.43,13.6,0.07352941176470588,1.9,7.1114416022209,0.0009456215999999999
293.7,360.0,14422.0,6.9337e-05,4.0189,6.515,149.86,22.898,42.952,447.18,0.050682,35.69,0.05082,supercritical,O2,C7782447,oxygen,154.58,50.43,13.6,0.07352941176470588,1.9,7.138607971445568,0.0009429832000000001
293.7,361.36,14462.0,6.9146e-05,4.0134,6.512,149.81,22.902,42.956,447.95,0.050176,35.764,0.050924,supercritical,O2,C7782447,oxygen,154.58,50.43,13.6,0.07352941176470588,1.9,7.165576046004363,0.0009403856000000001
293.7,362.73,14502.0,6.8956e-05,4.0079,6.5091,149.77,22.905,42.96,448.71,0.049672,35.837,0.051027,supercritical,O2,C7782447,oxygen,154.58,50.43,13.6,0.07352941176470588,1.9,7.192742415229031,0.0009378015999999999
293.7,364.09,14542.0,6.8768e-05,4.0024,6.5062,149.73,22.909,42.964,449.47,0.049172,35.91,0.05113,supercritical,O2,C7782447,oxygen,154.58,50.43,13.6,0.07352941176470588,1.9,7.219710489787825,0.0009352448000000001
293.7,365.45,14581.0,6.8582e-05,3.997,6.5033,149.69,22.912,42.968,450.23,0.048675,35.983,0.051233,supercritical,O2,C7782447,oxygen,154.58,50.43,13.6,0.07352941176470588,1.9,7.2466785643466185,0.0009327152
293.7,366.82,14621.0,6.8397e-05,3.9916,6.5005,149.65,22.916,42.971,451.0,0.048181,36.055,0.051336,supercritical,O2,C7782447,oxygen,154.58,50.43,13.6,0.07352941176470588,1.9,7.2738449335712865,0.0009301992
293.7,368.19,14660.0,6.8214e-05,3.9862,6.4977,149.6,22.919,42.974,451.76,0.047691,36.128,0.051439,supercritical,O2,C7782447,oxygen,154.58,50.43,13.6,0.07352941176470588,1.9,7.3010113027959544,0.0009277103999999999
293.7,369.55,14699.0,6.8032e-05,3.9808,6.4949,149.56,22.923,42.977,452.52,0.047203,36.201,0.051541,supercritical,O2,C7782447,oxygen,154.58,50.43,13.6,0.07352941176470588,1.9,7.327979377354749,0.0009252352
293.7,370.92,14738.0,6.7852e-05,3.9754,6.4921,149.52,22.926,42.98,453.29,0.046719,36.273,0.051644,supercritical,O2,C7782447,oxygen,154.58,50.43,13.6,0.07352941176470588,1.9,7.355145746579417,0.0009227872
293.7,372.28,14777.0,6.7674e-05,3.9701,6.4894,149.48,22.93,42.983,454.05,0.046237,36.346,0.051746,supercritical,O2,C7782447,oxygen,154.58,50.43,13.6,0.07352941176470588,1.9,7.382113821138211,0.0009203664
293.7,373.64,14816.0,6.7497e-05,3.9647,6.4867,149.44,22.933,42.986,454.81,0.045759,36.418,0.051848,supercritical,O2,C7782447,oxygen,154.58,50.43,13.6,0.07352941176470588,1.9,7.409081895697006,0.0009179591999999999
293.7,375.01,14854.0,6.7321e-05,3.9594,6.4841,149.4,22.937,42.988,455.58,0.045283,36.491,0.05195,supercritical,O2,C7782447,oxygen,154.58,50.43,13.6,0.07352941176470588,1.9,7.436248264921674,0.0009155656
293.7,376.38,14893.0,6.7148e-05,3.9541,6.4814,149.36,22.94,42.99,456.34,0.044811,36.563,0.052052,supercritical,O2,C7782447,oxygen,154.58,50.43,13.6,0.07352941176470588,1.9,7.463414634146341,0.0009132128
293.7,377.74,14931.0,6.6975e-05,3.9489,6.4788,149.32,22.943,42.992,457.11,0.044342,36.636,0.052154,supercritical,O2,C7782447,oxygen,154.58,50.43,13.6,0.07352941176470588,1.9,7.490382708705136,0.00091086
293.7,379.11,14969.0,6.6804e-05,3.9436,6.4762,149.28,22.947,42.994,457.87,0.043875,36.708,0.052256,supercritical,O2,C7782447,oxygen,154.58,50.43,13.6,0.07352941176470588,1.9,7.517549077929804,0.0009085344
293.7,380.47,15007.0,6.6635e-05,3.9384,6.4736,149.24,22.95,42.996,458.63,0.043412,36.78,0.052357,supercritical,O2,C7782447,oxygen,154.58,50.43,13.6,0.07352941176470588,1.9,7.5445171524885986,0.000906236
293.7,381.83,15045.0,6.6467e-05,3.9332,6.4711,149.2,22.954,42.997,459.4,0.042951,36.852,0.052459,supercritical,O2,C7782447,oxygen,154.58,50.43,13.6,0.07352941176470588,1.9,7.5714852270473925,0.0009039511999999999
293.7,383.2,15083.0,6.63e-05,3.928,6.4686,149.16,22.957,42.999,460.16,0.042493,36.924,0.05256,supercritical,O2,C7782447,oxygen,154.58,50.43,13.6,0.07352941176470588,1.9,7.59865159627206,0.00090168
293.7,384.56,15121.0,6.6135e-05,3.9228,6.4661,149.12,22.96,43.0,460.93,0.042039,36.996,0.052661,supercritical,O2,C7782447,oxygen,154.58,50.43,13.6,0.07352941176470588,1.9,7.625619670830854,0.000899436
293.7,385.93,15158.0,6.5972e-05,3.9176,6.4637,149.08,22.964,43.001,461.69,0.041587,37.068,0.052762,supercritical,O2,C7782447,oxygen,154.58,50.43,13.6,0.07352941176470588,1.9,7.652786040055522,0.0008972192
293.7,387.3,15195.0,6.5809e-05,3.9125,6.4612,149.04,22.967,43.002,462.46,0.041137,37.139,0.052863,supercritical,O2,C7782447,oxygen,154.58,50.43,13.6,0.07352941176470588,1.9,7.67995240928019,0.0008950024
293.7,388.66,15233.0,6.5648e-05,3.9074,6.4588,149.01,22.97,43.002,463.22,0.040691,37.211,0.052963,supercritical,O2,C7782447,oxygen,154.58,50.43,13.6,0.07352941176470588,1.9,7.706920483838985,0.0008928128
293.7,390.02,15270.0,6.5488e-05,3.9023,6.4565,148.97,22.974,43.003,463.99,0.040248,37.283,0.053064,supercritical,O2,C7782447,oxygen,154.58,50.43,13.6,0.07352941176470588,1.9,7.733888558397779,0.0008906367999999999
293.7,391.39,15307.0,6.533e-05,3.8972,6.4541,148.93,22.977,43.003,464.75,0.039807,37.354,0.053164,supercritical,O2,C7782447,oxygen,154.58,50.43,13.6,0.07352941176470588,1.9,7.761054927622447,0.000888488
293.7,392.75,15344.0,6.5173e-05,3.8921,6.4518,148.89,22.98,43.004,465.52,0.039369,37.426,0.053264,supercritical,O2,C7782447,oxygen,154.58,50.43,13.6,0.07352941176470588,1.9,7.788023002181242,0.0008863527999999999