Temperature (K),Pressure (bar),Density (mol/m3),Volume (m3/mol),Internal Energy (kJ/mol),Enthalpy (kJ/mol),Entropy (J/mol*K),Cv (J/mol*K),Cp (J/mol*K),Sound Spd. (m/s),Joule-Thomson (K/bar),Viscosity (uPa*s),Therm. Cond. (W/m*K),Phase,substance,substance_id,substance_name,Tc,Pc,rhoc,Vmc,Tr,Pr,Vmr
135.77,1.0,89.413,0.011184,1.6733,2.7917,138.35,12.569,21.178,216.18,1.4342,11.142,0.0087256,vapor,Ar,C7440371,argon,150.86,48.9805,13.41,0.07457121551081282,0.9000000000000001,0.020416288114657875,0.14997744000000002
135.77,2.63,238.88,0.0041861,1.6405,2.7415,130.07,12.734,21.864,214.76,1.4305,11.204,0.0088373,vapor,Ar,C7440371,argon,150.86,48.9805,13.41,0.07457121551081282,0.9000000000000001,0.053694837741550205,0.05613560100000001
135.77,4.26,393.33,0.0025424,1.6066,2.6897,125.8,12.91,22.615,213.31,1.4265,11.272,0.0089584,vapor,Ar,C7440371,argon,150.86,48.9805,13.41,0.07457121551081282,0.9000000000000001,0.08697338736844254,0.034093584
135.77,5.89,553.23,0.0018076,1.5716,2.6362,122.85,13.098,23.444,211.81,1.4223,11.344,0.0090901,vapor,Ar,C7440371,argon,150.86,48.9805,13.41,0.07457121551081282,0.9000000000000001,0.12025193699533487,0.024239916
135.77,7.52,719.12,0.0013906,1.5352,2.5809,120.54,13.299,24.364,210.25,1.4177,11.422,0.0092341,vapor,Ar,C7440371,argon,150.86,48.9805,13.41,0.07457121551081282,0.9000000000000001,0.1535304866222272,0.018647946000000002
135.77,9.15,891.66,0.0011215,1.4974,2.5236,118.62,13.516,25.391,208.63,1.4127,11.507,0.0093924,vapor,Ar,C7440371,argon,150.86,48.9805,13.41,0.07457121551081282,0.9000000000000001,0.18680903624911957,0.015039315000000003
135.77,10.78,1071.6,0.00093318,1.4579,2.4639,116.95,13.75,26.548,206.95,1.4072,11.598,0.0095677,vapor,Ar,C7440371,argon,150.86,48.9805,13.41,0.07457121551081282,0.9000000000000001,0.22008758587601188,0.012513943800000002
135.77,12.41,1259.9,0.00079372,1.4167,2.4017,115.46,14.004,27.863,205.19,1.4013,11.698,0.0097631,vapor,Ar,C7440371,argon,150.86,48.9805,13.41,0.07457121551081282,0.9000000000000001,0.2533661355029042,0.010643785200000002
135.77,14.04,1457.7,0.00068603,1.3733,2.3365,114.1,14.283,29.373,203.34,1.3947,11.806,0.0099827,vapor,Ar,C7440371,argon,150.86,48.9805,13.41,0.07457121551081282,0.9000000000000001,0.2866446851297965,0.009199662300000001
135.77,15.67,1666.3,0.00060013,1.3275,2.2679,112.82,14.591,31.133,201.4,1.3874,11.925,0.010232,vapor,Ar,C7440371,argon,150.86,48.9805,13.41,0.07457121551081282,0.9000000000000001,0.3199232347566889,0.008047743300000002
135.77,17.3,1887.6,0.00052977,1.279,2.1955,111.61,14.936,33.215,199.33,1.3793,12.057,0.010518,vapor,Ar,C7440371,argon,150.86,48.9805,13.41,0.07457121551081282,0.9000000000000001,0.35320178438358124,0.007104215700000001
135.77,18.93,2124.0,0.00047082,1.2271,2.1183,110.44,15.326,35.727,197.11,1.3701,12.203,0.010851,vapor,Ar,C7440371,argon,150.86,48.9805,13.41,0.07457121551081282,0.9000000000000001,0.38648033401047355,0.006313696200000001
135.77,20.56,2378.5,0.00042043,1.1711,2.0355,109.3,15.776,38.835,194.71,1.3596,12.367,0.011247,vapor,Ar,C7440371,argon,150.86,48.9805,13.41,0.07457121551081282,0.9000000000000001,0.41975888363736585,0.005637966300000001
135.77,22.19,2655.6,0.00037656,1.11,1.9456,108.16,16.307,42.809,192.07,1.3474,12.553,0.011726,vapor,Ar,C7440371,argon,150.86,48.9805,13.41,0.07457121551081282,0.9000000000000001,0.45303743326425827,0.005049669600000001
135.77,23.82,2961.9,0.00033762,1.0424,1.8466,107.0,16.95,48.122,189.12,1.3329,12.768,0.012327,vapor,Ar,C7440371,argon,150.86,48.9805,13.41,0.07457121551081282,0.9000000000000001,0.4863159828911506,0.004527484200000001
135.77,25.45,3307.8,0.00030232,0.9657,1.7351,105.8,17.763,55.697,185.74,1.3153,13.021,0.013115,vapor,Ar,C7440371,argon,150.86,48.9805,13.41,0.07457121551081282,0.9000000000000001,0.5195945325180429,0.004054111200000001
135.77,26.402,3534.9,0.0002829,0.91514,1.662,105.05,18.352,61.912,183.49,1.303,13.194,0.01371,vapor,Ar,C7440371,argon,150.86,48.9805,13.41,0.07457121551081282,0.9000000000000001,0.5390308388031972,0.0037936890000000003
135.77,26.402,25079.0,3.9874e-05,-2.2969,-2.1917,76.671,18.043,73.455,424.09,0.057799,72.981,0.063287,liquid,Ar,C7440371,argon,150.86,48.9805,13.41,0.07457121551081282,0.9000000000000001,0.5390308388031972,0.00053471034
135.77,27.08,25117.0,3.9814e-05,-2.3023,-2.1945,76.63,18.024,72.895,426.21,0.056675,73.253,0.063441,liquid,Ar,C7440371,argon,150.86,48.9805,13.41,0.07457121551081282,0.9000000000000001,0.5528730821449352,0.0005339057400000001
135.77,28.71,25206.0,3.9673e-05,-2.3149,-2.201,76.534,17.982,71.631,431.17,0.054091,73.892,0.063804,liquid,Ar,C7440371,argon,150.86,48.9805,13.41,0.07457121551081282,0.9000000000000001,0.5861516317718276,0.00053201493
135.77,30.34,25292.0,3.9538e-05,-2.3271,-2.2071,76.441,17.944,70.469,435.93,0.051659,74.514,0.064159,liquid,Ar,C7440371,argon,150.86,48.9805,13.41,0.07457121551081282,0.9000000000000001,0.6194301813987199,0.00053020458
135.77,31.97,25375.0,3.9409e-05,-2.3389,-2.2129,76.352,17.91,69.397,440.51,0.049364,75.119,0.064506,liquid,Ar,C7440371,argon,150.86,48.9805,13.41,0.07457121551081282,0.9000000000000001,0.6527087310256122,0.0005284746900000001
135.77,33.6,25455.0,3.9285e-05,-2.3503,-2.2183,76.264,17.88,68.403,444.93,0.047191,75.71,0.064845,liquid,Ar,C7440371,argon,150.86,48.9805,13.41,0.07457121551081282,0.9000000000000001,0.6859872806525046,0.00052681185
135.77,35.23,25533.0,3.9166e-05,-2.3614,-2.2234,76.18,17.852,67.478,449.19,0.04513,76.287,0.065178,liquid,Ar,C7440371,argon,150.86,48.9805,13.41,0.07457121551081282,0.9000000000000001,0.7192658302793968,0.00052521606
135.77,36.86,25608.0,3.905e-05,-2.3722,-2.2283,76.097,17.827,66.614,453.33,0.043169,76.851,0.065504,liquid,Ar,C7440371,argon,150.86,48.9805,13.41,0.07457121551081282,0.9000000000000001,0.7525443799062892,0.0005236605000000001
135.77,38.49,25681.0,3.8939e-05,-2.3827,-2.2328,76.017,17.804,65.806,457.33,0.041302,77.403,0.065825,liquid,Ar,C7440371,argon,150.86,48.9805,13.41,0.07457121551081282,0.9000000000000001,0.7858229295331817,0.00052217199
135.77,40.12,25752.0,3.8832e-05,-2.3929,-2.2371,75.938,17.783,65.046,461.21,0.039518,77.944,0.06614,liquid,Ar,C7440371,argon,150.86,48.9805,13.41,0.07457121551081282,0.9000000000000001,0.8191014791600739,0.00052073712
135.77,41.75,25821.0,3.8727e-05,-2.4029,-2.2412,75.862,17.765,64.331,464.99,0.037813,78.474,0.066449,liquid,Ar,C7440371,argon,150.86,48.9805,13.41,0.07457121551081282,0.9000000000000001,0.8523800287869663,0.0005193290700000001
135.77,43.38,25889.0,3.8627e-05,-2.4126,-2.2451,75.787,17.748,63.656,468.66,0.03618,78.995,0.066754,liquid,Ar,C7440371,argon,150.86,48.9805,13.41,0.07457121551081282,0.9000000000000001,0.8856585784138586,0.0005179880700000001
135.77,45.01,25955.0,3.8529e-05,-2.4221,-2.2487,75.714,17.732,63.017,472.23,0.034613,79.507,0.067054,liquid,Ar,C7440371,argon,150.86,48.9805,13.41,0.07457121551081282,0.9000000000000001,0.9189371280407509,0.0005166738900000001
135.77,46.64,26019.0,3.8433e-05,-2.4314,-2.2522,75.642,17.718,62.412,475.72,0.033109,80.01,0.067349,liquid,Ar,C7440371,argon,150.86,48.9805,13.41,0.07457121551081282,0.9000000000000001,0.9522156776676433,0.0005153865300000001
135.77,48.27,26082.0,3.8341e-05,-2.4405,-2.2554,75.572,17.706,61.837,479.12,0.031661,80.504,0.06764,liquid,Ar,C7440371,argon,150.86,48.9805,13.41,0.07457121551081282,0.9000000000000001,0.9854942272945356,0.00051415281
135.77,49.9,26143.0,3.8251e-05,-2.4494,-2.2586,75.503,17.694,61.29,482.44,0.030268,80.991,0.067927,liquid,Ar,C7440371,argon,150.86,48.9805,13.41,0.07457121551081282,0.9000000000000001,1.0187727769214279,0.00051294591
135.77,51.53,26203.0,3.8163e-05,-2.4581,-2.2615,75.435,17.684,60.769,485.68,0.028924,81.471,0.06821,liquid,Ar,C7440371,argon,150.86,48.9805,13.41,0.07457121551081282,0.9000000000000001,1.0520513265483202,0.00051176583
135.77,53.16,26262.0,3.8078e-05,-2.4667,-2.2643,75.369,17.674,60.271,488.85,0.027628,81.943,0.068489,liquid,Ar,C7440371,argon,150.86,48.9805,13.41,0.07457121551081282,0.9000000000000001,1.0853298761752126,0.00051062598
135.77,54.79,26320.0,3.7994e-05,-2.4751,-2.2669,75.304,17.666,59.796,491.96,0.026376,82.409,0.068765,liquid,Ar,C7440371,argon,150.86,48.9805,13.41,0.07457121551081282,0.9000000000000001,1.118608425802105,0.0005094995400000001
135.77,56.42,26376.0,3.7913e-05,-2.4833,-2.2694,75.24,17.659,59.341,495.0,0.025166,82.869,0.069038,liquid,Ar,C7440371,argon,150.86,48.9805,13.41,0.07457121551081282,0.9000000000000001,1.1518869754289973,0.0005084133300000001
135.77,58.05,26432.0,3.7833e-05,-2.4914,-2.2718,75.177,17.652,58.905,497.98,0.023994,83.322,0.069307,liquid,Ar,C7440371,argon,150.86,48.9805,13.41,0.07457121551081282,0.9000000000000001,1.1851655250558895,0.0005073405300000001
135.77,59.68,26486.0,3.7756e-05,-2.4994,-2.274,75.115,17.646,58.487,500.9,0.02286,83.77,0.069573,liquid,Ar,C7440371,argon,150.86,48.9805,13.41,0.07457121551081282,0.9000000000000001,1.218444074682782,0.0005063079600000001
135.77,61.31,26540.0,3.768e-05,-2.5072,-2.2762,75.054,17.641,58.085,503.77,0.02176,84.212,0.069836,liquid,Ar,C7440371,argon,150.86,48.9805,13.41,0.07457121551081282,0.9000000000000001,1.2517226243096744,0.0005052888000000001
135.77,62.94,26592.0,3.7605e-05,-2.5148,-2.2782,74.994,17.636,57.699,506.58,0.020694,84.648,0.070096,liquid,Ar,C7440371,argon,150.86,48.9805,13.41,0.07457121551081282,0.9000000000000001,1.2850011739365665,0.0005042830500000001
135.77,64.57,26644.0,3.7533e-05,-2.5224,-2.2801,74.935,17.633,57.327,509.35,0.019659,85.08,0.070353,liquid,Ar,C7440371,argon,150.86,48.9805,13.41,0.07457121551081282,0.9000000000000001,1.318279723563459,0.00050331753
135.77,66.2,26694.0,3.7461e-05,-2.5298,-2.2818,74.877,17.629,56.969,512.06,0.018654,85.507,0.070608,liquid,Ar,C7440371,argon,150.86,48.9805,13.41,0.07457121551081282,0.9000000000000001,1.3515582731903513,0.00050235201
135.77,67.83,26744.0,3.7391e-05,-2.5371,-2.2835,74.82,17.626,56.624,514.73,0.017677,85.929,0.07086,liquid,Ar,C7440371,argon,150.86,48.9805,13.41,0.07457121551081282,0.9000000000000001,1.3848368228172436,0.0005014133100000001
135.77,69.46,26793.0,3.7323e-05,-2.5443,-2.2851,74.763,17.624,56.29,517.36,0.016727,86.346,0.07111,liquid,Ar,C7440371,argon,150.86,48.9805,13.41,0.07457121551081282,0.9000000000000001,1.4181153724441358,0.0005005014300000001
135.77,71.09,26842.0,3.7256e-05,-2.5514,-2.2866,74.708,17.622,55.968,519.94,0.015802,86.76,0.071357,liquid,Ar,C7440371,argon,150.86,48.9805,13.41,0.07457121551081282,0.9000000000000001,1.4513939220710284,0.00049960296
135.77,72.72,26889.0,3.719e-05,-2.5584,-2.288,74.653,17.621,55.657,522.49,0.014902,87.169,0.071602,liquid,Ar,C7440371,argon,150.86,48.9805,13.41,0.07457121551081282,0.9000000000000001,1.4846724716979205,0.0004987179000000001
135.77,74.35,26936.0,3.7125e-05,-2.5653,-2.2893,74.598,17.62,55.356,524.99,0.014026,87.574,0.071844,liquid,Ar,C7440371,argon,150.86,48.9805,13.41,0.07457121551081282,0.9000000000000001,1.5179510213248129,0.0004978462500000001
135.77,75.98,26982.0,3.7062e-05,-2.5721,-2.2905,74.545,17.619,55.065,527.46,0.013171,87.975,0.072085,liquid,Ar,C7440371,argon,150.86,48.9805,13.41,0.07457121551081282,0.9000000000000001,1.5512295709517054,0.00049700142
135.77,77.61,27028.0,3.6999e-05,-2.5788,-2.2917,74.492,17.619,54.783,529.89,0.012338,88.372,0.072323,liquid,Ar,C7440371,argon,150.86,48.9805,13.41,0.07457121551081282,0.9000000000000001,1.5845081205785976,0.0004961565900000001
135.77,79.24,27073.0,3.6938e-05,-2.5854,-2.2927,74.44,17.619,54.509,532.28,0.011526,88.766,0.072559,liquid,Ar,C7440371,argon,150.86,48.9805,13.41,0.07457121551081282,0.9000000000000001,1.61778667020549,0.00049533858
135.77,80.87,27117.0,3.6878e-05,-2.5919,-2.2937,74.388,17.619,54.244,534.65,0.010733,89.156,0.072794,liquid,Ar,C7440371,argon,150.86,48.9805,13.41,0.07457121551081282,0.9000000000000001,1.6510652198323823,0.0004945339800000001
135.77,82.5,27160.0,3.6818e-05,-2.5984,-2.2946,74.337,17.62,53.986,536.98,0.0099588,89.543,0.073026,liquid,Ar,C7440371,argon,150.86,48.9805,13.41,0.07457121551081282,0.9000000000000001,1.6843437694592747,0.00049372938
135.77,84.13,27203.0,3.676e-05,-2.6047,-2.2955,74.287,17.621,53.736,539.28,0.0092026,89.926,0.073256,liquid,Ar,C7440371,argon,150.86,48.9805,13.41,0.07457121551081282,0.9000000000000001,1.7176223190861668,0.0004929516
135.77,85.76,27246.0,3.6703e-05,-2.611,-2.2962,74.237,17.622,53.493,541.54,0.0084637,90.307,0.073485,liquid,Ar,C7440371,argon,150.86,48.9805,13.41,0.07457121551081282,0.9000000000000001,1.7509008687130594,0.00049218723
135.77,87.39,27288.0,3.6646e-05,-2.6172,-2.2969,74.188,17.623,53.256,543.78,0.0077415,90.684,0.073712,liquid,Ar,C7440371,argon,150.86,48.9805,13.41,0.07457121551081282,0.9000000000000001,1.7841794183399518,0.0004914228600000001
135.77,89.02,27329.0,3.6591e-05,-2.6233,-2.2976,74.139,17.625,53.027,545.99,0.0070353,91.058,0.073937,liquid,Ar,C7440371,argon,150.86,48.9805,13.41,0.07457121551081282,0.9000000000000001,1.817457967966844,0.0004906853100000001
135.77,90.65,27370.0,3.6536e-05,-2.6294,-2.2982,74.091,17.627,52.803,548.18,0.0063444,91.429,0.07416,liquid,Ar,C7440371,argon,150.86,48.9805,13.41,0.07457121551081282,0.9000000000000001,1.8507365175937365,0.00048994776
135.77,92.28,27411.0,3.6482e-05,-2.6353,-2.2987,74.044,17.629,52.585,550.33,0.0056684,91.798,0.074382,liquid,Ar,C7440371,argon,150.86,48.9805,13.41,0.07457121551081282,0.9000000000000001,1.8840150672206286,0.00048922362
135.77,93.91,27451.0,3.6429e-05,-2.6412,-2.2991,73.996,17.632,52.373,552.46,0.0050067,92.163,0.074602,liquid,Ar,C7440371,argon,150.86,48.9805,13.41,0.07457121551081282,0.9000000000000001,1.917293616847521,0.00048851289
135.77,95.54,27490.0,3.6377e-05,-2.6471,-2.2995,73.95,17.634,52.166,554.57,0.0043588,92.527,0.074821,liquid,Ar,C7440371,argon,150.86,48.9805,13.41,0.07457121551081282,0.9000000000000001,1.9505721664744133,0.00048781557000000006
135.77,97.17,27529.0,3.6325e-05,-2.6528,-2.2999,73.904,17.637,51.965,556.65,0.0037242,92.887,0.075038,liquid,Ar,C7440371,argon,150.86,48.9805,13.41,0.07457121551081282,0.9000000000000001,1.9838507161013057,0.00048711825000000007
135.77,98.8,27568.0,3.6274e-05,-2.6585,-2.3002,73.858,17.64,51.768,558.71,0.0031024,93.245,0.075254,liquid,Ar,C7440371,argon,150.86,48.9805,13.41,0.07457121551081282,0.9000000000000001,2.017129265728198,0.00048643434000000005
135.77,100.43,27606.0,3.6224e-05,-2.6642,-2.3004,73.813,17.643,51.576,560.75,0.0024931,93.601,0.075468,liquid,Ar,C7440371,argon,150.86,48.9805,13.41,0.07457121551081282,0.9000000000000001,2.0504078153550904,0.00048576384
135.77,102.06,27644.0,3.6175e-05,-2.6698,-2.3006,73.768,17.646,51.389,562.76,0.0018957,93.954,0.075681,liquid,Ar,C7440371,argon,150.86,48.9805,13.41,0.07457121551081282,0.9000000000000001,2.0836863649819826,0.00048510675000000005
135.77,103.69,27681.0,3.6126e-05,-2.6753,-2.3007,73.723,17.65,51.206,564.75,0.0013099,94.305,0.075892,liquid,Ar,C7440371,argon,150.86,48.9805,13.41,0.07457121551081282,0.9000000000000001,2.116964914608875,0.00048444966000000004
135.77,105.32,27718.0,3.6078e-05,-2.6808,-2.3008,73.679,17.653,51.028,566.72,0.00073537,94.653,0.076102,liquid,Ar,C7440371,argon,150.86,48.9805,13.41,0.07457121551081282,0.9000000000000001,2.1502434642357673,0.00048380598000000006
135.77,106.95,27754.0,3.603e-05,-2.6862,-2.3008,73.636,17.657,50.853,568.67,0.00017168,95.0,0.076311,liquid,Ar,C7440371,argon,150.86,48.9805,13.41,0.07457121551081282,0.9000000000000001,2.18352201386266,0.00048316230000000003
135.77,108.58,27791.0,3.5983e-05,-2.6915,-2.3008,73.593,17.66,50.683,570.6,-0.00038148,95.344,0.076518,liquid,Ar,C7440371,argon,150.86,48.9805,13.41,0.07457121551081282,0.9000000000000001,2.216800563489552,0.00048253203
135.77,110.21,27826.0,3.5937e-05,-2.6968,-2.3008,73.55,17.664,50.516,572.51,-0.00092446,95.686,0.076724,liquid,Ar,C7440371,argon,150.86,48.9805,13.41,0.07457121551081282,0.9000000000000001,2.250079113116444,0.00048191517000000005
135.77,111.84,27862.0,3.5891e-05,-2.7021,-2.3007,73.508,17.668,50.353,574.41,-0.0014576,96.026,0.076929,liquid,Ar,C7440371,argon,150.86,48.9805,13.41,0.07457121551081282,0.9000000000000001,2.2833576627433367,0.00048129831
135.77,113.47,27897.0,3.5846e-05,-2.7073,-2.3005,73.466,17.672,50.193,576.28,-0.0019811,96.364,0.077133,liquid,Ar,C7440371,argon,150.86,48.9805,13.41,0.07457121551081282,0.9000000000000001,2.316636212370229,0.0004806948600000001
135.77,115.1,27932.0,3.5802e-05,-2.7124,-2.3003,73.424,17.677,50.037,578.13,-0.0024953,96.701,0.077336,liquid,Ar,C7440371,argon,150.86,48.9805,13.41,0.07457121551081282,0.9000000000000001,2.349914761997121,0.00048010482000000005
135.77,116.73,27966.0,3.5758e-05,-2.7175,-2.3001,73.383,17.681,49.884,579.97,-0.0030005,97.035,0.077537,liquid,Ar,C7440371,argon,150.86,48.9805,13.41,0.07457121551081282,0.9000000000000001,2.3831933116240136,0.00047951478000000003
135.77,118.36,28000.0,3.5714e-05,-2.7226,-2.2999,73.342,17.685,49.734,581.79,-0.0034969,97.367,0.077737,liquid,Ar,C7440371,argon,150.86,48.9805,13.41,0.07457121551081282,0.9000000000000001,2.416471861250906,0.00047892474
135.77,119.99,28034.0,3.5671e-05,-2.7276,-2.2996,73.301,17.69,49.588,583.6,-0.0039849,97.698,0.077936,liquid,Ar,C7440371,argon,150.86,48.9805,13.41,0.07457121551081282,0.9000000000000001,2.4497504108777983,0.00047834811
135.77,121.62,28067.0,3.5629e-05,-2.7325,-2.2992,73.261,17.695,49.444,585.39,-0.0044645,98.027,0.078134,liquid,Ar,C7440371,argon,150.86,48.9805,13.41,0.07457121551081282,0.9000000000000001,2.483028960504691,0.00047778489000000005
135.77,123.25,28100.0,3.5587e-05,-2.7374,-2.2988,73.221,17.699,49.303,587.16,-0.0049361,98.354,0.078331,liquid,Ar,C7440371,argon,150.86,48.9805,13.41,0.07457121551081282,0.9000000000000001,2.516307510131583,0.0004772216700000001
135.77,124.88,28133.0,3.5545e-05,-2.7423,-2.2984,73.181,17.704,49.165,588.91,-0.0054,98.679,0.078527,liquid,Ar,C7440371,argon,150.86,48.9805,13.41,0.07457121551081282,0.9000000000000001,2.549586059758475,0.00047665845
135.77,126.51,28166.0,3.5504e-05,-2.7471,-2.298,73.142,17.709,49.03,590.66,-0.0058562,99.003,0.078722,liquid,Ar,C7440371,argon,150.86,48.9805,13.41,0.07457121551081282,0.9000000000000001,2.5828646093853678,0.00047610864000000003
135.77,128.14,28198.0,3.5464e-05,-2.7519,-2.2975,73.103,17.714,48.897,592.38,-0.006305,99.326,0.078916,liquid,Ar,C7440371,argon,150.86,48.9805,13.41,0.07457121551081282,0.9000000000000001,2.61614315901226,0.00047557224
135.77,129.77,28230.0,3.5424e-05,-2.7567,-2.297,73.064,17.719,48.766,594.09,-0.0067466,99.646,0.079108,liquid,Ar,C7440371,argon,150.86,48.9805,13.41,0.07457121551081282,0.9000000000000001,2.6494217086391525,0.00047503584
135.77,131.4,28262.0,3.5384e-05,-2.7614,-2.2964,73.026,17.724,48.639,595.79,-0.0071812,99.965,0.0793,liquid,Ar,C7440371,argon,150.86,48.9805,13.41,0.07457121551081282,0.9000000000000001,2.6827002582660446,0.00047449944000000006
135.77,133.03,28293.0,3.5345e-05,-2.766,-2.2958,72.987,17.729,48.513,597.47,-0.007609,100.28,0.079491,liquid,Ar,C7440371,argon,150.86,48.9805,13.41,0.07457121551081282,0.9000000000000001,2.715978807892937,0.0004739764500000001
135.77,134.66,28324.0,3.5306e-05,-2.7706,-2.2952,72.95,17.734,48.39,599.14,-0.0080301,100.6,0.079681,liquid,Ar,C7440371,argon,150.86,48.9805,13.41,0.07457121551081282,0.9000000000000001,2.7492573575198294,0.00047345346
135.77,136.29,28355.0,3.5267e-05,-2.7752,-2.2946,72.912,17.739,48.269,600.8,-0.0084448,100.91,0.07987,liquid,Ar,C7440371,argon,150.86,48.9805,13.41,0.07457121551081282,0.9000000000000001,2.7825359071467215,0.00047293047000000006
135.77,137.92,28386.0,3.5229e-05,-2.7798,-2.2939,72.875,17.744,48.15,602.44,-0.0088531,101.23,0.080058,liquid,Ar,C7440371,argon,150.86,48.9805,13.41,0.07457121551081282,0.9000000000000001,2.8158144567736136,0.00047242089
135.77,139.55,28416.0,3.5191e-05,-2.7843,-2.2932,72.838,17.75,48.033,604.08,-0.0092553,101.54,0.080245,liquid,Ar,C7440371,argon,150.86,48.9805,13.41,0.07457121551081282,0.9000000000000001,2.8490930064005067,0.0004719113100000001