Temperature (K),Pressure (bar),Density (mol/m3),Volume (m3/mol),Internal Energy (kJ/mol),Enthalpy (kJ/mol),Entropy (J/mol*K),Cv (J/mol*K),Cp (J/mol*K),Sound Spd. (m/s),Joule-Thomson (K/bar),Viscosity (uPa*s),Therm. Cond. (W/m*K),Phase,substance,substance_id,substance_name,Tc,Pc,rhoc,Vmc,Tr,Pr,Vmr
150.86,449.25,30334.0,3.2966e-05,-2.7935,-1.3125,72.339,18.041,39.456,749.07,-0.036644,122.4,0.094947,supercritical,Ar,C7440371,argon,150.86,48.9805,13.41,0.07457121551081282,1.0,9.17201743551005,0.00044207406000000007
150.86,450.88,30350.0,3.2949e-05,-2.7957,-1.3101,72.319,18.046,39.432,749.92,-0.036751,122.6,0.095068,supercritical,Ar,C7440371,argon,150.86,48.9805,13.41,0.07457121551081282,1.0,9.205295985136942,0.00044184609000000004
150.86,452.51,30366.0,3.2932e-05,-2.798,-1.3078,72.299,18.052,39.41,750.77,-0.036858,122.8,0.095189,supercritical,Ar,C7440371,argon,150.86,48.9805,13.41,0.07457121551081282,1.0,9.238574534763835,0.0004416181200000001
150.86,454.14,30381.0,3.2915e-05,-2.8002,-1.3054,72.279,18.057,39.387,751.62,-0.036964,123.0,0.095309,supercritical,Ar,C7440371,argon,150.86,48.9805,13.41,0.07457121551081282,1.0,9.271853084390727,0.00044139015000000005
150.86,455.77,30397.0,3.2898e-05,-2.8024,-1.303,72.259,18.062,39.364,752.46,-0.037069,123.2,0.095429,supercritical,Ar,C7440371,argon,150.86,48.9805,13.41,0.07457121551081282,1.0,9.305131634017618,0.0004411621800000001
150.86,457.4,30413.0,3.2881e-05,-2.8046,-1.3006,72.24,18.068,39.342,753.3,-0.037173,123.4,0.095549,supercritical,Ar,C7440371,argon,150.86,48.9805,13.41,0.07457121551081282,1.0,9.33841018364451,0.00044093421
150.86,459.03,30428.0,3.2864e-05,-2.8068,-1.2982,72.22,18.073,39.319,754.14,-0.037277,123.6,0.095669,supercritical,Ar,C7440371,argon,150.86,48.9805,13.41,0.07457121551081282,1.0,9.371688733271403,0.0004407062400000001
150.86,460.66,30444.0,3.2847e-05,-2.809,-1.2958,72.2,18.078,39.297,754.98,-0.03738,123.8,0.095788,supercritical,Ar,C7440371,argon,150.86,48.9805,13.41,0.07457121551081282,1.0,9.404967282898298,0.00044047827
150.86,462.29,30460.0,3.283e-05,-2.8112,-1.2934,72.181,18.084,39.275,755.81,-0.037483,124.0,0.095908,supercritical,Ar,C7440371,argon,150.86,48.9805,13.41,0.07457121551081282,1.0,9.438245832525189,0.0004402503000000001
150.86,463.92,30475.0,3.2814e-05,-2.8133,-1.291,72.161,18.089,39.253,756.64,-0.037584,124.2,0.096027,supercritical,Ar,C7440371,argon,150.86,48.9805,13.41,0.07457121551081282,1.0,9.471524382152081,0.00044003574000000005
150.86,465.55,30490.0,3.2797e-05,-2.8155,-1.2886,72.142,18.094,39.232,757.47,-0.037685,124.4,0.096146,supercritical,Ar,C7440371,argon,150.86,48.9805,13.41,0.07457121551081282,1.0,9.504802931778974,0.00043980777
150.86,467.18,30506.0,3.2781e-05,-2.8177,-1.2862,72.122,18.1,39.21,758.3,-0.037786,124.6,0.096264,supercritical,Ar,C7440371,argon,150.86,48.9805,13.41,0.07457121551081282,1.0,9.538081481405866,0.00043959321
150.86,468.81,30521.0,3.2764e-05,-2.8198,-1.2838,72.103,18.105,39.189,759.13,-0.037885,124.8,0.096383,supercritical,Ar,C7440371,argon,150.86,48.9805,13.41,0.07457121551081282,1.0,9.571360031032759,0.00043936524000000006
150.86,470.44,30536.0,3.2748e-05,-2.822,-1.2814,72.084,18.11,39.167,759.95,-0.037985,125.0,0.096501,supercritical,Ar,C7440371,argon,150.86,48.9805,13.41,0.07457121551081282,1.0,9.60463858065965,0.00043915068
150.86,472.07,30552.0,3.2731e-05,-2.8241,-1.279,72.064,18.116,39.146,760.77,-0.038083,125.19,0.096619,supercritical,Ar,C7440371,argon,150.86,48.9805,13.41,0.07457121551081282,1.0,9.637917130286542,0.0004389227100000001
150.86,473.7,30567.0,3.2715e-05,-2.8262,-1.2765,72.045,18.121,39.125,761.59,-0.038181,125.39,0.096737,supercritical,Ar,C7440371,argon,150.86,48.9805,13.41,0.07457121551081282,1.0,9.671195679913435,0.00043870815000000005
150.86,475.33,30582.0,3.2699e-05,-2.8284,-1.2741,72.026,18.126,39.104,762.41,-0.038278,125.59,0.096854,supercritical,Ar,C7440371,argon,150.86,48.9805,13.41,0.07457121551081282,1.0,9.704474229540327,0.00043849359000000006
150.86,476.96,30597.0,3.2683e-05,-2.8305,-1.2716,72.007,18.132,39.083,763.23,-0.038375,125.79,0.096972,supercritical,Ar,C7440371,argon,150.86,48.9805,13.41,0.07457121551081282,1.0,9.73775277916722,0.00043827903
150.86,478.59,30612.0,3.2667e-05,-2.8326,-1.2692,71.988,18.137,39.063,764.04,-0.03847,125.99,0.097089,supercritical,Ar,C7440371,argon,150.86,48.9805,13.41,0.07457121551081282,1.0,9.77103132879411,0.00043806447
150.86,480.22,30627.0,3.2651e-05,-2.8347,-1.2667,71.969,18.142,39.042,764.85,-0.038566,126.18,0.097206,supercritical,Ar,C7440371,argon,150.86,48.9805,13.41,0.07457121551081282,1.0,9.804309878421005,0.0004378499100000001
150.86,481.85,30642.0,3.2635e-05,-2.8368,-1.2643,71.95,18.147,39.022,765.66,-0.03866,126.38,0.097323,supercritical,Ar,C7440371,argon,150.86,48.9805,13.41,0.07457121551081282,1.0,9.837588428047898,0.0004376353500000001
150.86,483.48,30657.0,3.2619e-05,-2.8389,-1.2618,71.931,18.153,39.002,766.47,-0.038755,126.58,0.097439,supercritical,Ar,C7440371,argon,150.86,48.9805,13.41,0.07457121551081282,1.0,9.870866977674789,0.00043742079000000004
150.86,485.11,30672.0,3.2603e-05,-2.841,-1.2594,71.912,18.158,38.982,767.27,-0.038848,126.77,0.097556,supercritical,Ar,C7440371,argon,150.86,48.9805,13.41,0.07457121551081282,1.0,9.904145527301681,0.00043720623000000004
150.86,486.74,30687.0,3.2587e-05,-2.843,-1.2569,71.893,18.163,38.962,768.08,-0.038941,126.97,0.097672,supercritical,Ar,C7440371,argon,150.86,48.9805,13.41,0.07457121551081282,1.0,9.937424076928574,0.00043699167
150.86,488.37,30702.0,3.2571e-05,-2.8451,-1.2544,71.874,18.168,38.942,768.88,-0.039033,127.17,0.097788,supercritical,Ar,C7440371,argon,150.86,48.9805,13.41,0.07457121551081282,1.0,9.970702626555466,0.00043677711
150.86,490.0,30717.0,3.2556e-05,-2.8472,-1.2519,71.855,18.174,38.922,769.68,-0.039125,127.36,0.097904,supercritical,Ar,C7440371,argon,150.86,48.9805,13.41,0.07457121551081282,1.0,10.003981176182359,0.00043657596000000004
150.86,491.63,30731.0,3.254e-05,-2.8492,-1.2495,71.837,18.179,38.903,770.47,-0.039216,127.56,0.09802,supercritical,Ar,C7440371,argon,150.86,48.9805,13.41,0.07457121551081282,1.0,10.037259725809252,0.0004363614
150.86,493.26,30746.0,3.2525e-05,-2.8513,-1.247,71.818,18.184,38.883,771.27,-0.039307,127.76,0.098135,supercritical,Ar,C7440371,argon,150.86,48.9805,13.41,0.07457121551081282,1.0,10.070538275436142,0.00043616025000000003
150.86,494.89,30761.0,3.2509e-05,-2.8533,-1.2445,71.799,18.189,38.864,772.06,-0.039397,127.95,0.09825,supercritical,Ar,C7440371,argon,150.86,48.9805,13.41,0.07457121551081282,1.0,10.103816825063035,0.0004359456900000001
150.86,496.52,30775.0,3.2494e-05,-2.8553,-1.242,71.781,18.195,38.845,772.85,-0.039487,128.15,0.098365,supercritical,Ar,C7440371,argon,150.86,48.9805,13.41,0.07457121551081282,1.0,10.137095374689927,0.00043574454
150.86,498.15,30790.0,3.2478e-05,-2.8574,-1.2395,71.762,18.2,38.826,773.64,-0.039575,128.35,0.09848,supercritical,Ar,C7440371,argon,150.86,48.9805,13.41,0.07457121551081282,1.0,10.17037392431682,0.0004355299800000001
150.86,499.78,30804.0,3.2463e-05,-2.8594,-1.237,71.744,18.205,38.807,774.43,-0.039664,128.54,0.098595,supercritical,Ar,C7440371,argon,150.86,48.9805,13.41,0.07457121551081282,1.0,10.203652473943713,0.00043532883
150.86,501.41,30819.0,3.2448e-05,-2.8614,-1.2345,71.726,18.21,38.788,775.22,-0.039752,128.74,0.098709,supercritical,Ar,C7440371,argon,150.86,48.9805,13.41,0.07457121551081282,1.0,10.236931023570605,0.00043512768000000004
150.86,503.04,30833.0,3.2432e-05,-2.8634,-1.2319,71.707,18.216,38.769,776.0,-0.039839,128.93,0.098824,supercritical,Ar,C7440371,argon,150.86,48.9805,13.41,0.07457121551081282,1.0,10.270209573197498,0.00043491312
150.86,504.67,30848.0,3.2417e-05,-2.8654,-1.2294,71.689,18.221,38.751,776.78,-0.039926,129.13,0.098938,supercritical,Ar,C7440371,argon,150.86,48.9805,13.41,0.07457121551081282,1.0,10.30348812282439,0.00043471197000000003
150.86,506.3,30862.0,3.2402e-05,-2.8674,-1.2269,71.671,18.226,38.732,777.56,-0.040012,129.32,0.099052,supercritical,Ar,C7440371,argon,150.86,48.9805,13.41,0.07457121551081282,1.0,10.336766672451281,0.00043451082
150.86,507.93,30876.0,3.2387e-05,-2.8694,-1.2244,71.652,18.231,38.714,778.34,-0.040098,129.52,0.099166,supercritical,Ar,C7440371,argon,150.86,48.9805,13.41,0.07457121551081282,1.0,10.370045222078174,0.00043430967000000005
150.86,509.56,30891.0,3.2372e-05,-2.8714,-1.2218,71.634,18.236,38.695,779.12,-0.040183,129.71,0.099279,supercritical,Ar,C7440371,argon,150.86,48.9805,13.41,0.07457121551081282,1.0,10.403323771705066,0.00043410852000000003
150.86,511.19,30905.0,3.2357e-05,-2.8734,-1.2193,71.616,18.242,38.677,779.89,-0.040268,129.91,0.099393,supercritical,Ar,C7440371,argon,150.86,48.9805,13.41,0.07457121551081282,1.0,10.436602321331959,0.00043390737000000007
150.86,512.82,30919.0,3.2342e-05,-2.8753,-1.2168,71.598,18.247,38.659,780.67,-0.040352,130.1,0.099506,supercritical,Ar,C7440371,argon,150.86,48.9805,13.41,0.07457121551081282,1.0,10.469880870958852,0.0004337062200000001
150.86,514.45,30933.0,3.2328e-05,-2.8773,-1.2142,71.58,18.252,38.641,781.44,-0.040435,130.3,0.099619,supercritical,Ar,C7440371,argon,150.86,48.9805,13.41,0.07457121551081282,1.0,10.503159420585744,0.00043351848
150.86,516.08,30947.0,3.2313e-05,-2.8793,-1.2117,71.562,18.257,38.624,782.21,-0.040519,130.49,0.099732,supercritical,Ar,C7440371,argon,150.86,48.9805,13.41,0.07457121551081282,1.0,10.536437970212637,0.00043331733000000005
150.86,517.71,30962.0,3.2298e-05,-2.8812,-1.2091,71.544,18.262,38.606,782.98,-0.040601,130.69,0.099844,supercritical,Ar,C7440371,argon,150.86,48.9805,13.41,0.07457121551081282,1.0,10.56971651983953,0.0004331161800000001
150.86,519.34,30976.0,3.2284e-05,-2.8832,-1.2066,71.526,18.268,38.588,783.74,-0.040683,130.88,0.099957,supercritical,Ar,C7440371,argon,150.86,48.9805,13.41,0.07457121551081282,1.0,10.602995069466422,0.00043292844
150.86,520.97,30990.0,3.2269e-05,-2.8851,-1.204,71.508,18.273,38.571,784.51,-0.040765,131.08,0.10007,supercritical,Ar,C7440371,argon,150.86,48.9805,13.41,0.07457121551081282,1.0,10.636273619093313,0.00043272729
150.86,522.6,31004.0,3.2254e-05,-2.887,-1.2014,71.49,18.278,38.553,785.27,-0.040846,131.27,0.10018,supercritical,Ar,C7440371,argon,150.86,48.9805,13.41,0.07457121551081282,1.0,10.669552168720205,0.00043252614000000006
150.86,524.23,31017.0,3.224e-05,-2.889,-1.1989,71.472,18.283,38.536,786.03,-0.040927,131.46,0.10029,supercritical,Ar,C7440371,argon,150.86,48.9805,13.41,0.07457121551081282,1.0,10.702830718347098,0.0004323384000000001
150.86,525.86,31031.0,3.2225e-05,-2.8909,-1.1963,71.454,18.288,38.519,786.79,-0.041007,131.66,0.10041,supercritical,Ar,C7440371,argon,150.86,48.9805,13.41,0.07457121551081282,1.0,10.73610926797399,0.00043213725
150.86,527.49,31045.0,3.2211e-05,-2.8928,-1.1937,71.437,18.293,38.502,787.55,-0.041087,131.85,0.10052,supercritical,Ar,C7440371,argon,150.86,48.9805,13.41,0.07457121551081282,1.0,10.769387817600883,0.00043194951000000007
150.86,529.12,31059.0,3.2197e-05,-2.8947,-1.1911,71.419,18.299,38.485,788.3,-0.041166,132.05,0.10063,supercritical,Ar,C7440371,argon,150.86,48.9805,13.41,0.07457121551081282,1.0,10.802666367227774,0.00043176177
150.86,530.75,31073.0,3.2182e-05,-2.8966,-1.1885,71.401,18.304,38.468,789.05,-0.041245,132.24,0.10074,supercritical,Ar,C7440371,argon,150.86,48.9805,13.41,0.07457121551081282,1.0,10.835944916854666,0.00043156062
150.86,532.38,31087.0,3.2168e-05,-2.8985,-1.186,71.384,18.309,38.451,789.81,-0.041323,132.43,0.10085,supercritical,Ar,C7440371,argon,150.86,48.9805,13.41,0.07457121551081282,1.0,10.869223466481559,0.0004313728800000001
150.86,534.01,31100.0,3.2154e-05,-2.9004,-1.1834,71.366,18.314,38.434,790.56,-0.041401,132.63,0.10096,supercritical,Ar,C7440371,argon,150.86,48.9805,13.41,0.07457121551081282,1.0,10.902502016108452,0.00043118514
150.86,535.64,31114.0,3.214e-05,-2.9023,-1.1808,71.349,18.319,38.418,791.31,-0.041479,132.82,0.10107,supercritical,Ar,C7440371,argon,150.86,48.9805,13.41,0.07457121551081282,1.0,10.935780565735344,0.00043099740000000005
150.86,537.27,31128.0,3.2126e-05,-2.9042,-1.1782,71.331,18.324,38.401,792.05,-0.041556,133.01,0.10118,supercritical,Ar,C7440371,argon,150.86,48.9805,13.41,0.07457121551081282,1.0,10.969059115362235,0.00043080966
150.86,538.9,31141.0,3.2112e-05,-2.9061,-1.1756,71.314,18.329,38.385,792.8,-0.041632,133.21,0.10129,supercritical,Ar,C7440371,argon,150.86,48.9805,13.41,0.07457121551081282,1.0,11.002337664989128,0.00043062192
150.86,540.53,31155.0,3.2098e-05,-2.9079,-1.173,71.296,18.334,38.369,793.54,-0.041708,133.4,0.1014,supercritical,Ar,C7440371,argon,150.86,48.9805,13.41,0.07457121551081282,1.0,11.03561621461602,0.0004304341800000001
150.86,542.16,31168.0,3.2084e-05,-2.9098,-1.1703,71.279,18.339,38.352,794.29,-0.041784,133.59,0.10151,supercritical,Ar,C7440371,argon,150.86,48.9805,13.41,0.07457121551081282,1.0,11.068894764242913,0.00043024644000000004
150.86,543.79,31182.0,3.207e-05,-2.9117,-1.1677,71.262,18.345,38.336,795.03,-0.041859,133.79,0.10162,supercritical,Ar,C7440371,argon,150.86,48.9805,13.41,0.07457121551081282,1.0,11.102173313869805,0.00043005870000000006
150.86,545.42,31195.0,3.2056e-05,-2.9135,-1.1651,71.244,18.35,38.32,795.76,-0.041934,133.98,0.10173,supercritical,Ar,C7440371,argon,150.86,48.9805,13.41,0.07457121551081282,1.0,11.135451863496696,0.00042987096
150.86,547.05,31209.0,3.2042e-05,-2.9154,-1.1625,71.227,18.355,38.304,796.5,-0.042009,134.17,0.10184,supercritical,Ar,C7440371,argon,150.86,48.9805,13.41,0.07457121551081282,1.0,11.168730413123589,0.0004296832200000001
150.86,548.68,31222.0,3.2028e-05,-2.9172,-1.1599,71.21,18.36,38.289,797.24,-0.042082,134.36,0.10195,supercritical,Ar,C7440371,argon,150.86,48.9805,13.41,0.07457121551081282,1.0,11.202008962750481,0.00042949548000000004
150.86,550.31,31236.0,3.2015e-05,-2.919,-1.1572,71.193,18.365,38.273,797.97,-0.042156,134.56,0.10206,supercritical,Ar,C7440371,argon,150.86,48.9805,13.41,0.07457121551081282,1.0,11.235287512377374,0.00042932115000000003
150.86,551.94,31249.0,3.2001e-05,-2.9209,-1.1546,71.176,18.37,38.257,798.7,-0.042229,134.75,0.10217,supercritical,Ar,C7440371,argon,150.86,48.9805,13.41,0.07457121551081282,1.0,11.268566062004268,0.00042913341000000004
150.86,553.57,31262.0,3.1987e-05,-2.9227,-1.152,71.158,18.375,38.242,799.44,-0.042302,134.94,0.10228,supercritical,Ar,C7440371,argon,150.86,48.9805,13.41,0.07457121551081282,1.0,11.30184461163116,0.00042894567
150.86,555.2,31276.0,3.1974e-05,-2.9245,-1.1493,71.141,18.38,38.226,800.17,-0.042374,135.13,0.10239,supercritical,Ar,C7440371,argon,150.86,48.9805,13.41,0.07457121551081282,1.0,11.335123161258053,0.0004287713400000001
150.86,556.83,31289.0,3.196e-05,-2.9263,-1.1467,71.124,18.385,38.211,800.89,-0.042446,135.33,0.1025,supercritical,Ar,C7440371,argon,150.86,48.9805,13.41,0.07457121551081282,1.0,11.368401710884944,0.00042858360000000005
150.86,558.46,31302.0,3.1947e-05,-2.9282,-1.1441,71.107,18.39,38.195,801.62,-0.042517,135.52,0.10261,supercritical,Ar,C7440371,argon,150.86,48.9805,13.41,0.07457121551081282,1.0,11.401680260511837,0.00042840927
150.86,560.09,31315.0,3.1933e-05,-2.93,-1.1414,71.09,18.395,38.18,802.34,-0.042588,135.71,0.10271,supercritical,Ar,C7440371,argon,150.86,48.9805,13.41,0.07457121551081282,1.0,11.43495881013873,0.00042822153000000006
150.86,561.72,31328.0,3.192e-05,-2.9318,-1.1387,71.073,18.4,38.165,803.07,-0.042659,135.9,0.10282,supercritical,Ar,C7440371,argon,150.86,48.9805,13.41,0.07457121551081282,1.0,11.468237359765622,0.00042804720000000004
150.86,563.35,31341.0,3.1907e-05,-2.9336,-1.1361,71.057,18.405,38.15,803.79,-0.042729,136.09,0.10293,supercritical,Ar,C7440371,argon,150.86,48.9805,13.41,0.07457121551081282,1.0,11.501515909392515,0.00042787287000000003
150.86,564.98,31354.0,3.1893e-05,-2.9353,-1.1334,71.04,18.41,38.135,804.51,-0.042799,136.29,0.10304,supercritical,Ar,C7440371,argon,150.86,48.9805,13.41,0.07457121551081282,1.0,11.534794459019405,0.00042768513000000005
150.86,566.61,31367.0,3.188e-05,-2.9371,-1.1308,71.023,18.416,38.12,805.23,-0.042869,136.48,0.10314,supercritical,Ar,C7440371,argon,150.86,48.9805,13.41,0.07457121551081282,1.0,11.568073008646298,0.00042751080000000003
150.86,568.24,31381.0,3.1867e-05,-2.9389,-1.1281,71.006,18.421,38.105,805.95,-0.042938,136.67,0.10325,supercritical,Ar,C7440371,argon,150.86,48.9805,13.41,0.07457121551081282,1.0,11.60135155827319,0.00042733647
150.86,569.87,31393.0,3.1854e-05,-2.9407,-1.1254,70.989,18.426,38.091,806.66,-0.043007,136.86,0.10336,supercritical,Ar,C7440371,argon,150.86,48.9805,13.41,0.07457121551081282,1.0,11.634630107900083,0.00042716214
150.86,571.5,31406.0,3.1841e-05,-2.9425,-1.1228,70.973,18.431,38.076,807.38,-0.043075,137.05,0.10347,supercritical,Ar,C7440371,argon,150.86,48.9805,13.41,0.07457121551081282,1.0,11.667908657526976,0.00042698781000000005
150.86,573.13,31419.0,3.1828e-05,-2.9442,-1.1201,70.956,18.436,38.061,808.09,-0.043143,137.24,0.10357,supercritical,Ar,C7440371,argon,150.86,48.9805,13.41,0.07457121551081282,1.0,11.701187207153868,0.00042681348000000004
150.86,574.76,31432.0,3.1814e-05,-2.946,-1.1174,70.939,18.441,38.047,808.8,-0.04321,137.43,0.10368,supercritical,Ar,C7440371,argon,150.86,48.9805,13.41,0.07457121551081282,1.0,11.734465756780759,0.00042662574
150.86,576.39,31445.0,3.1801e-05,-2.9477,-1.1147,70.923,18.446,38.033,809.51,-0.043278,137.63,0.10379,supercritical,Ar,C7440371,argon,150.86,48.9805,13.41,0.07457121551081282,1.0,11.767744306407652,0.0004264514100000001
150.86,578.02,31458.0,3.1789e-05,-2.9495,-1.112,70.906,18.451,38.018,810.22,-0.043344,137.82,0.10389,supercritical,Ar,C7440371,argon,150.86,48.9805,13.41,0.07457121551081282,1.0,11.801022856034544,0.00042629049
150.86,579.65,31471.0,3.1776e-05,-2.9512,-1.1094,70.89,18.456,38.004,810.93,-0.043411,138.01,0.104,supercritical,Ar,C7440371,argon,150.86,48.9805,13.41,0.07457121551081282,1.0,11.834301405661437,0.00042611616000000005
150.86,581.28,31483.0,3.1763e-05,-2.953,-1.1067,70.873,18.461,37.99,811.63,-0.043477,138.2,0.10411,supercritical,Ar,C7440371,argon,150.86,48.9805,13.41,0.07457121551081282,1.0,11.86757995528833,0.00042594183000000004
150.86,582.91,31496.0,3.175e-05,-2.9547,-1.104,70.857,18.466,37.976,812.34,-0.043543,138.39,0.10421,supercritical,Ar,C7440371,argon,150.86,48.9805,13.41,0.07457121551081282,1.0,11.90085850491522,0.0004257675
150.86,584.54,31509.0,3.1737e-05,-2.9564,-1.1013,70.84,18.471,37.962,813.04,-0.043608,138.58,0.10432,supercritical,Ar,C7440371,argon,150.86,48.9805,13.41,0.07457121551081282,1.0,11.934137054542113,0.00042559317
150.86,586.17,31522.0,3.1724e-05,-2.9582,-1.0986,70.824,18.476,37.948,813.74,-0.043673,138.77,0.10442,supercritical,Ar,C7440371,argon,150.86,48.9805,13.41,0.07457121551081282,1.0,11.967415604169005,0.0004254188400000001
150.86,587.8,31534.0,3.1712e-05,-2.9599,-1.0959,70.808,18.481,37.934,814.44,-0.043738,138.96,0.10453,supercritical,Ar,C7440371,argon,150.86,48.9805,13.41,0.07457121551081282,1.0,12.000694153795898,0.00042525792
150.86,589.43,31547.0,3.1699e-05,-2.9616,-1.0932,70.791,18.486,37.92,815.14,-0.043802,139.15,0.10464,supercritical,Ar,C7440371,argon,150.86,48.9805,13.41,0.07457121551081282,1.0,12.03397270342279,0.00042508359000000006
150.86,591.06,31559.0,3.1686e-05,-2.9633,-1.0905,70.775,18.49,37.906,815.84,-0.043866,139.34,0.10474,supercritical,Ar,C7440371,argon,150.86,48.9805,13.41,0.07457121551081282,1.0,12.067251253049681,0.00042490926000000005
150.86,592.69,31572.0,3.1674e-05,-2.965,-1.0877,70.759,18.495,37.893,816.53,-0.04393,139.53,0.10485,supercritical,Ar,C7440371,argon,150.86,48.9805,13.41,0.07457121551081282,1.0,12.100529802676578,0.00042474834000000007
150.86,594.32,31584.0,3.1661e-05,-2.9667,-1.085,70.743,18.5,37.879,817.23,-0.043993,139.72,0.10495,supercritical,Ar,C7440371,argon,150.86,48.9805,13.41,0.07457121551081282,1.0,12.133808352303468,0.00042457401000000006
150.86,595.95,31597.0,3.1649e-05,-2.9684,-1.0823,70.726,18.505,37.866,817.92,-0.044056,139.91,0.10506,supercritical,Ar,C7440371,argon,150.86,48.9805,13.41,0.07457121551081282,1.0,12.167086901930361,0.0004244130900000001